ITEM: TIMESTEP
360000
ITEM: NUMBER OF ATOMS
16384
ITEM: BOX BOUNDS pp pp pp
0.0000000000000000e+00 5.5200000000000003e+01
0.0000000000000000e+00 5.5200000000000003e+01
0.0000000000000000e+00 5.5200000000000003e+01
ITEM: ATOMS id type x y z ix iy iz
15145 2 1.591 1.68223 2.25136 1 1 1
6154 2 1.59003 55.0681 0.253452 0 -1 1
931 1 3.50674 0.607541 1.55051 0 1 0
16216 1 5.24988 1.75593 0.370346 0 1 1
4369 2 5.88182 1.16645 2.62222 0 0 0
11364 1 7.18411 2.64979 1.26489 1 0 1
16006 2 7.9506 0.340133 1.71858 0 1 1
4779 2 9.10212 1.77166 0.138582 0 1 0
14853 2 9.42807 2.89891 2.21422 0 1 1
13600 1 9.90762 0.78487 2.46954 0 0 1
10105 1 11.5735 0.996546 0.832004 0 1 1
15767 2 13.199 0.759709 2.27492 0 0 1
4763 2 15.3767 1.42641 0.803753 0 0 0
538 1 15.3884 2.49414 2.85695 0 0 0
14369 1 13.2989 1.91392 54.7214 0 0 0
5720 1 17.2275 0.747846 2.0933 0 1 0
9357 1 18.9938 1.1255 0.438462 0 0 0
15324 2 21.1942 0.632373 1.33985 0 1 1
11757 2 19.2457 2.57629 2.45887 0 0 1
12700 1 20.8858 2.99733 1.0414 0 0 1
200 1 22.9719 2.45882 1.65956 0 0 0
10535 1 22.9161 0.932904 55.0672 0 0 0
4206 2 23.3333 0.121249 2.41279 0 0 0
15677 1 24.698 2.43575 0.22143 0 0 1
14831 2 25.1335 1.70454 2.62533 0 0 1
12253 1 26.6648 1.63862 0.934344 1 1 1
4972 2 25.0065 0.138586 0.639368 0 1 0
4991 2 29.0767 0.934785 1.12936 0 1 0
15945 2 28.9958 2.98466 1.14072 -1 0 1
6250 1 30.9635 2.04661 2.1727 1 0 0
7399 2 33.3615 1.4079 2.51228 0 0 0
935 1 33.2632 1.34842 0.0406709 0 1 0
3387 2 35.4191 2.81478 2.4658 0 0 0
8174 2 35.1491 0.710062 0.911027 0 1 0
95 1 35.117 2.9276 0.0769149 0 0 0
13698 1 39.2122 1.33294 1.84977 -1 0 1
14738 2 37.2361 2.00909 0.75725 0 1 1
13900 1 38.8794 54.8247 0.343324 -1 -1 0
8721 2 41.8837 2.2061 1.16839 0 1 0
10896 2 41.2609 0.321362 2.10749 -1 0 0
2787 2 40.5559 3.00032 2.86857 0 1 0
4861 1 44.0956 1.12478 2.13513 0 1 0
11637 2 43.9402 2.98063 0.333486 0 0 1
14390 1 46.0608 2.12598 1.66334 0 0 1
15299 1 48.3478 2.49241 2.39243 -1 1 1
11180 2 49.1847 0.814826 0.436717 0 1 1
4576 2 51.1456 0.687443 1.91326 -1 0 0
1599 2 50.3097 2.82601 1.06888 0 1 0
8228 2 54.8567 1.07393 1.26712 0 0 1
7984 1 52.6448 1.2818 0.0875153 -1 1 1
997 1 53.1772 0.873226 3.00369 -1 1 0
6199 1 52.7336 2.85984 1.93847 0 0 0
2467 1 1.04455 3.9622 1.5307 0 0 0
11083 2 3.12787 5.37357 0.610365 0 1 1
6903 1 3.24106 2.83747 1.03858 1 1 0
3906 2 2.91552 4.36875 2.84066 0 1 0
2302 2 5.29009 3.55695 2.23201 1 0 0
13483 1 8.96305 5.35158 1.93874 1 0 1
5007 1 6.9125 5.0369 0.917355 0 0 0
3327 1 9.00577 4.0852 55.2004 1 0 0
3854 1 11.0161 3.29707 0.705565 0 1 0
6174 2 11.089 4.86752 2.91519 0 0 1
8417 1 10.7661 5.53414 0.515306 1 0 0
12750 2 13.3224 2.92683 1.66875 0 0 1
3672 1 12.9915 5.22898 1.4988 0 0 0
11582 2 15.1517 4.72939 2.35818 1 0 0
13273 2 15.0348 3.67619 0.460357 0 1 1
2490 2 17.315 3.08508 1.51153 0 0 0
12123 2 16.9773 5.50965 1.01913 0 1 1
741 1 19.0653 4.80043 1.86801 0 1 0
5805 1 20.7146 5.30909 0.474594 1 0 0
11150 1 18.8901 3.3814 55.2506 0 1 0
11706 1 22.6101 4.64912 1.2899 1 0 1
3234 1 24.7636 3.84787 2.01398 0 0 0
8293 2 26.6298 5.53223 2.29834 0 0 0
15923 2 26.7277 3.84001 0.353709 0 0 1
1053 1 26.8533 3.29088 2.84297 0 0 0
182 1 28.3719 5.23829 0.61077 1 0 -1
13511 2 30.7764 4.2124 0.955462 -1 0 1
15588 1 32.3091 5.63928 2.2298 0 0 1
15210 2 32.9752 3.35589 1.5757 0 1 1
12100 1 31.8028 6.05436 55.1163 -1 1 0
4843 2 31.2734 2.36505 55.313 0 1 -1
9192 1 33.9819 5.49019 0.602692 0 1 1
3907 2 36.1601 4.54701 1.20852 -1 1 0
14989 1 34.5853 5.08518 2.91895 0 1 1
13740 2 39.5293 3.19973 0.277718 0 0 1
14915 1 38.267 3.87127 2.09998 -1 1 1
1370 1 38.2281 6.00766 0.86395 0 0 0
3213 2 40.3392 5.15937 1.51421 -1 0 0
4450 1 42.6061 4.13561 2.04168 0 0 0
12310 2 42.587 6.2941 0.881807 0 0 0
11065 1 44.7326 4.92348 1.69176 0 1 1
15500 2 45.9761 4.11665 55.0744 -1 0 0
10413 2 44.4459 3.13996 3.09991 0 0 1
16299 2 46.7728 4.46044 2.31072 0 1 1
15239 2 48.3948 4.20035 0.693827 -1 1 1
7033 1 46.8445 6.08052 0.791129 0 1 0
9452 2 49.5356 4.5012 2.76336 -1 0 0
11617 1 51.5991 5.02593 1.42386 0 0 1
574 2 54.473 3.07168 0.366658 0 1 0
9823 2 53.9104 4.97934 2.14389 -1 1 1
1958 1 0.831303 6.41169 0.903781 1 1 0
4274 2 2.46827 7.11012 2.54744 1 0 0
10240 1 0.10248 8.03673 2.40561 1 1 1
7359 2 4.9779 5.7569 1.83888 1 0 0
5849 2 4.24489 8.00094 1.051 0 1 0
8232 2 6.05746 8.52655 2.56611 1 0 0
16284 2 6.79107 6.40747 3.08968 0 1 0
2254 1 6.37594 7.18266 0.637622 0 0 0
14311 1 8.31542 7.61473 1.92755 1 1 1
15036 2 10.4 8.0557 0.36173 1 1 1
4865 2 10.4876 7.02775 2.49768 0 1 0
14551 2 12.347 7.60003 1.44127 0 0 1
13446 1 14.8129 6.08816 0.258688 0 0 1
7665 1 14.6215 7.23503 2.11082 0 0 1
1266 1 14.1693 8.31064 55.1957 0 0 -1
16029 1 16.3786 7.75616 0.733614 0 1 1
11392 1 18.5593 7.25202 1.44767 1 0 1
5132 1 20.5097 6.65928 2.17559 0 0 1
11634 2 20.0797 9.03337 1.94798 0 0 1
1637 1 20.399 7.66761 0.0889365 0 0 0
7462 2 22.3834 6.88287 0.840533 0 0 0
49 1 24.0692 8.46504 1.08471 0 0 0
1167 1 22.1796 8.35223 2.69962 0 0 0
4146 2 24.4841 6.04467 1.45747 0 0 1
5647 2 26.1649 7.87868 1.62618 0 0 0
3282 2 28.5042 6.91613 3.11987 0 0 0
4864 1 30.1455 6.48072 1.33805 0 1 0
1551 1 28.2723 7.57013 0.419859 0 0 0
1139 2 30.3125 8.71363 0.521376 0 0 0
4691 1 32.3621 7.96981 1.20908 0 0 0
13065 2 34.5102 7.30203 2.08325 0 0 1
535 2 35.9531 6.79096 0.0910517 0 0 0
719 2 36.5644 6.4603 2.64424 -1 0 0
11255 1 36.7302 8.53986 1.43657 0 1 1
6945 2 39.1144 7.7488 2.0525 -1 0 0
2538 2 40.4904 7.24158 0.382395 0 1 0
14791 1 41.2155 7.08278 2.66177 -1 1 1
9399 1 41.3531 9.07636 1.5418 0 0 0
5457 2 43.4126 8.14638 2.16578 0 0 0
5455 1 44.7147 6.90405 0.302206 -1 0 0
6659 2 45.7532 7.06139 2.44117 -1 0 0
12208 1 45.8682 8.89956 1.36358 0 1 1
2142 1 48.0346 8.31436 1.68749 -1 0 0
4175 1 47.8949 6.47466 3.08892 -1 0 0
4918 2 49.4419 6.43305 1.29942 0 1 0
16322 1 50.821 8.49695 1.87733 -1 1 1
4457 2 50.844 6.57498 3.25117 -1 0 0
5187 2 51.5004 6.95458 0.0425702 -1 1 1
3334 2 53.3569 7.09062 1.4022 -1 0 0
14072 1 53.1183 9.04046 2.42964 0 1 1
5310 1 1.88912 9.30181 1.4224 1 0 0
1896 2 1.66589 11.4708 0.55762 0 0 0
8536 1 2.63127 11.3035 2.73567 0 0 0
343 2 5.5802 10.8552 1.8076 0 0 0
1344 2 3.64263 10.493 0.365092 1 0 0
14210 2 7.68716 9.65617 1.63533 0 1 1
15768 1 8.93202 11.5888 2.42299 0 1 1
15955 1 7.42256 11.6259 0.632355 1 0 1
15148 1 9.97356 9.22982 2.52094 0 1 1
993 1 11.6974 10.0673 1.1273 0 1 0
13607 2 9.44416 10.3297 0.202779 0 0 1
10600 2 13.7359 9.63116 2.01613 0 0 0
9228 1 12.8928 11.8784 1.94091 0 0 1
4436 1 15.2769 11.3746 2.60956 0 0 0
1009 2 15.463 10.1136 0.600662 0 1 0
4447 1 17.8127 9.71674 1.36773 0 0 0
14454 2 17.3415 12.0606 1.39928 1 0 1
5593 1 19.5444 11.282 2.00157 0 0 0
9707 2 19.9182 9.92148 54.9854 0 0 -1
4572 2 21.6095 11.4569 0.270813 0 0 0
496 1 21.9181 9.24442 0.514476 0 0 0
7603 2 21.6921 10.6905 2.39044 0 0 0
9353 2 23.8346 11.0072 0.806329 0 0 0
4266 1 25.8353 10.355 1.47257 0 0 0
2510 2 27.247 11.9813 1.01729 0 0 0
9785 1 28.0653 9.10367 2.32462 0 0 0
6771 1 29.4314 10.7646 1.78481 0 0 0
5351 2 28.0286 9.90505 0.177563 0 0 0
9486 1 31.6512 10.1124 2.27296 0 0 0
14442 1 33.6436 11.0875 1.66303 0 0 1
2292 2 32.4526 9.67894 55.0868 0 0 -1
14427 1 34.6873 9.15726 0.75004 0 0 1
2607 2 35.7786 10.7104 2.28408 0 0 0
7360 2 36.9985 10.3793 0.148827 0 0 0
14320 2 39.0313 9.58876 0.779593 0 1 1
9869 1 37.8368 10.0066 2.80185 -1 0 1
950 2 38.0406 11.9291 1.71917 0 1 0
6314 1 40.194 11.2659 1.99408 0 0 0
1589 2 42.4027 10.6581 2.64735 0 0 0
8527 1 41.3189 10.9145 0.0768147 -1 0 1
6988 2 43.5854 10.2247 0.714993 -1 0 0
11811 1 44.4661 12.0605 2.00186 0 0 1
642 1 44.5689 9.89111 3.10653 -1 0 0
15399 2 46.5508 11.0558 2.24597 0 0 1
10487 2 47.8202 10.1976 0.519674 0 0 1
1715 1 49.2225 10.277 2.65855 0 0 0
8632 1 50.4191 10.5875 0.758533 0 0 1
3239 1 51.405 10.6554 3.04493 0 0 0
374 1 52.4585 9.16865 0.419724 0 0 0
2084 2 55.1156 10.4167 1.59518 0 0 0
15925 1 52.7305 11.3288 1.16482 0 0 1
16307 1 0.410161 12.2866 2.71354 1 1 1
7515 2 2.12569 13.5501 1.63908 1 0 1
11889 1 4.24526 12.5353 1.52379 0 0 0
11755 1 4.94069 14.3949 2.66351 0 0 1
8551 2 3.91514 14.8662 0.253231 0 0 1
4233 2 6.8156 12.9577 2.68791 0 0 0
13574 1 8.42385 13.6605 1.00732 0 0 1
5184 1 6.15869 13.5595 0.308508 1 0 1
4787 2 10.4957 12.4724 1.08546 0 0 0
12612 1 9.89949 15.117 1.87054 0 0 1
5316 2 11.9941 14.0921 1.75174 0 0 0
922 2 14.1794 13.6632 2.60632 0 1 0
10777 2 14.8473 12.4829 0.75512 0 0 1
11976 1 13.8529 14.852 0.370437 0 0 1
3346 1 16.1772 14.4896 1.267 0 0 0
1130 1 18.7756 13.7425 1.88218 0 0 0
10732 2 21.0268 13.0539 2.00072 0 0 1
15400 2 23.2721 12.4788 2.43825 0 0 1
12325 1 24.0551 14.4675 1.79298 0 -1 1
1999 1 22.9245 13.2507 0.0104975 0 0 0
14153 1 21.8907 14.9935 1.45177 0 0 1
2054 1 25.0899 12.836 0.644541 0 0 0
15086 2 26.0628 13.8963 2.44768 0 0 1
12415 2 25.4212 15.132 55.0254 1 -1 -1
814 2 27.4591 14.2139 0.833023 0 0 0
13339 1 29.4956 12.9628 0.745339 0 -1 1
12252 2 30.0404 14.6301 2.49414 0 1 1
15082 1 28.2568 13.3659 2.9454 0 1 1
10464 1 31.5491 12.0271 1.23521 0 0 0
14197 1 32.2553 13.7041 2.58977 0 1 1
7679 2 33.4628 13.2083 0.490342 0 0 0
2266 1 31.3112 14.0565 0.445333 0 0 0
6204 2 35.6692 12.3453 0.836338 0 0 0
3872 2 36.3054 14.4276 2.26302 0 0 0
5272 1 34.077 15.0252 1.9754 0 0 0
6886 1 35.2705 14.7429 0.101515 0 0 0
11207 2 37.5844 13.9701 0.375889 -1 1 1
12650 2 38.659 13.8542 2.9509 1 0 1
9303 1 39.874 13.368 0.885169 -1 0 1
12726 2 42.3287 12.5437 1.32287 0 0 0
2781 2 41.8335 14.7429 0.37724 0 1 0
2917 1 40.5153 15.1126 2.32673 0 1 0
11493 2 42.8173 14.4765 2.7347 0 0 0
1503 1 44.1879 14.0763 0.699521 0 0 0
10608 1 44.9865 13.9006 3.38971 0 0 1
4869 2 48.559 12.2129 1.46225 -1 1 0
794 2 46.4217 13.1279 1.15763 -1 1 0
15582 1 48.1453 14.3326 0.451041 -1 0 1
5350 2 46.9344 15.1415 2.38102 0 0 0
7857 1 49.1465 14.5142 2.64318 0 0 0
9375 2 50.9236 12.6921 1.87041 0 -1 0
7529 1 50.66 14.9095 1.08242 0 0 0
372 1 51.4459 14.6682 3.26056 0 0 0
15530 2 55.097 14.3602 1.51768 0 0 1
12353 1 54.6948 12.2788 0.490684 -1 0 1
14219 2 53.3052 13.0086 2.40154 -1 1 1
2111 1 3.05829 15.7901 2.40506 1 0 1
13424 2 0.689277 16.3663 2.41191 0 0 1
7752 1 1.718 15.6432 0.278973 0 0 0
2262 1 2.27728 17.6935 1.38328 0 0 0
10574 2 4.53085 17.2109 1.08692 0 0 1
15900 1 6.25787 15.4592 1.20291 0 0 1
3574 2 6.3707 18.1046 1.62769 1 0 0
264 2 8.08843 16.5639 1.48037 0 0 0
3550 2 11.4875 17.0242 2.16249 0 0 0
8948 2 9.8442 17.0271 -0.0309568 0 0 0
12433 1 11.8884 18.1091 0.282489 0 0 1
14527 2 11.862 15.804 0.173931 1 0 1
7532 2 13.5735 15.918 2.25746 0 0 1
8655 1 13.8456 17.2752 0.0364008 0 0 0
15316 1 13.3888 18.2797 2.03458 0 1 1
7556 2 15.78 16.752 1.34362 0 0 1
6972 1 17.7957 15.8075 2.27882 1 0 1
9876 1 17.7575 17.1448 0.355413 0 0 0
10598 1 17.534 18.0773 2.73418 0 0 1
13346 2 19.8148 16.212 1.22316 0 0 1
12624 2 21.7759 16.9627 2.71646 0 0 1
13142 1 23.546 16.4236 0.962946 0 1 1
15953 1 22.2298 18.444 0.888005 0 0 1
5305 2 24.086 18.3001 2.18385 0 0 0
10815 1 25.7262 16.3304 1.8548 0 0 1
1675 2 27.8557 17.7994 1.14349 0 1 0
12918 1 29.5793 15.8031 0.585681 0 0 1
3706 1 27.721 15.6416 2.29556 0 0 0
12872 2 29.8968 17.4171 2.15786 0 0 1
2201 2 31.9015 15.8968 1.7305 0 0 0
12595 1 31.4104 17.4151 0.199015 1 0 1
742 2 33.0728 15.6404 55.0195 0 1 -1
11605 1 33.6618 17.2993 1.38738 -1 0 1
7584 1 35.9309 16.6496 1.62528 0 0 0
15280 2 38.3902 15.9194 1.83345 0 1 1
9821 2 37.7957 17.9953 0.894502 0 0 0
14917 2 40.2504 17.291 1.29349 -1 0 1
11370 1 42.4532 16.6474 1.59967 0 0 1
6260 1 44.7496 16.019 2.06911 0 0 0
1398 1 44.2648 18.2808 0.922772 0 0 0
14474 2 46.1925 15.3127 0.125182 -1 0 1
3411 2 46.4946 17.4462 1.25956 -1 1 0
10587 1 48.8084 16.6577 1.53909 -1 0 1
6458 2 51.2157 16.9748 1.98969 0 0 1
8927 1 52.8911 15.4498 1.57875 0 0 1
2164 1 54.7133 16.3959 0.404657 0 0 0
9183 1 53.7785 17.4134 2.54359 -1 1 0
213 2 52.5881 18.0367 0.60041 -1 0 0
14583 2 2.23505 19.7347 2.01271 1 0 1
10278 2 0.064938 18.6082 1.35947 1 0 1
3782 1 0.209286 20.9531 2.16558 1 0 0
2388 1 4.51452 19.5617 1.75288 0 0 0
6366 1 3.29192 20.9665 0.502715 0 0 0
10360 2 5.69594 20.9512 0.438768 1 -1 0
15992 1 6.92388 20.6757 2.49729 0 0 1
8181 2 7.65962 19.5908 0.662368 0 0 1
15898 1 9.20826 18.3706 2.12829 0 0 1
16235 1 9.22889 20.9805 2.31428 0 0 1
15556 2 9.84535 19.4219 0.293865 0 0 1
10951 1 11.3455 19.5866 2.26867 0 0 0
8722 2 13.6477 20.4681 1.16898 0 0 0
3222 2 15.6658 19.1694 1.49406 0 0 0
13663 2 18.2061 19.3649 0.94052 0 0 1
3311 1 17.3143 20.6931 2.70054 0 0 0
5611 2 20.165 18.5941 2.06081 1 0 0
13845 2 20.1342 21.0947 1.97481 0 0 1
1491 2 22.1668 19.7236 2.78208 0 0 0
5505 1 22.1002 20.5731 0.664134 -1 0 0
8528 2 24.2197 20.7643 2.10067 0 0 1
2319 1 24.1104 19.5315 0.064757 0 0 0
4331 2 26.1421 19.6265 1.98371 0 0 0
13890 2 27.7321 20.2699 0.688905 -1 0 1
9978 1 30.2566 20.7339 2.13382 0 0 0
12284 1 29.5999 19.2265 0.570311 0 1 1
9654 2 28.3072 19.3622 2.86419 0 0 1
10898 2 31.8207 19.2068 1.76 0 0 1
15852 2 32.2322 21.3766 3.29678 0 0 1
650 1 31.4297 20.6405 -0.011479 0 1 0
549 1 33.5142 21.0567 1.35738 0 0 0
1969 1 36.4623 18.6998 2.81758 0 0 0
16182 2 34.0488 19.1588 2.70174 0 0 0
14393 2 35.7958 20.6338 1.65444 0 0 1
3643 2 35.7435 18.6551 0.486971 0 0 0
4020 1 38.2516 20.0492 2.14466 0 1 0
11701 1 39.5527 19.5988 0.191486 0 0 1
2412 2 41.7834 18.715 0.456842 0 0 0
5879 1 40.5768 19.4198 2.42666 0 0 1
3692 2 42.4148 20.8046 1.84823 0 0 0
11476 2 42.8026 18.5562 2.85768 -1 0 1
13944 2 44.8003 20.1255 2.00186 0 1 1
477 2 46.0682 19.5521 0.122984 0 0 0
399 1 48.5512 18.8075 0.744867 -1 0 0
2561 2 47.2533 19.2174 2.76239 -1 0 0
3760 2 49.0344 20.7284 1.95435 0 0 0
9024 1 49.5615 18.5139 2.85955 0 0 0
1605 1 50.7081 19.5037 1.09669 -1 0 0
8884 2 53.0407 20.2641 1.6045 -1 0 0
3408 2 1.3968 22.2265 0.583475 0 0 0
1558 1 0.658249 23.0923 2.89258 1 0 0
11096 2 4.85835 21.8533 2.53236 0 0 1
15421 2 2.56066 21.7435 2.57518 1 -1 1
4145 2 3.46826 23.332 1.01299 1 0 0
15151 1 5.15601 24.3104 2.74478 0 0 1
16054 1 5.72436 23.2959 0.517283 1 1 1
11385 2 7.66651 21.8516 0.417733 1 0 1
5386 2 7.29264 23.1976 2.22433 0 -1 0
15619 1 7.83223 24.4548 0.169289 0 0 1
13488 2 11.275 21.7164 1.60564 1 0 1
6395 1 9.39424 23.2319 1.2934 1 0 1
3755 2 11.5913 24.2102 1.35882 1 0 1
47 1 13.3712 22.7633 1.50349 1 0 0
13793 2 15.2539 24.634 2.42707 0 0 1
2397 1 12.7857 24.1147 3.33767 0 0 0
13540 2 15.6871 21.9595 1.46739 0 -1 1
16274 1 16.8943 23.9401 0.607726 0 0 1
4661 1 18.0788 21.7217 0.629589 0 0 0
2426 2 16.9045 23.3888 2.91048 1 0 0
12905 2 19.1362 23.419 1.93639 0 0 1
5411 2 20.6327 22.7492 0.261907 0 0 0
1679 1 21.3443 24.2916 1.79637 0 0 0
11779 1 22.3524 22.3374 1.83589 -1 0 0
10179 2 24.4036 23.6351 1.68601 0 1 0
669 2 26.7004 23.8302 2.57647 0 0 0
410 1 26.2752 22.1511 1.20215 0 0 0
6940 1 27.9819 23.6221 0.563339 -1 0 1
930 1 28.1316 21.5842 2.43412 0 1 0
13282 2 29.4557 23.581 2.27518 0 0 1
740 1 31.4083 22.6704 1.53295 0 0 0
8120 2 33.0006 24.2197 0.677517 1 1 1
12027 1 34.9107 22.6686 0.749057 0 0 1
7667 2 33.7787 23.2268 2.69362 0 0 1
14084 1 36.0593 22.825 2.84708 -1 1 1
12140 2 37.6364 22.1141 0.918779 0 1 1
14790 2 37.5351 24.4383 1.87906 -1 1 1
13162 1 39.4365 23.6332 0.587354 0 1 1
9431 2 39.9752 21.5534 1.5212 0 0 1
12406 1 40.3894 23.4601 2.92816 0 0 1
11166 2 42.0353 22.9157 1.02957 0 0 1
14297 1 44.323 22.2522 1.44479 0 1 0
10019 2 44.6579 24.4281 2.92857 0 1 1
7601 2 43.6611 24.5959 0.668704 0 0 0
1705 2 46.5631 21.3841 1.79165 0 1 0
10455 2 46.1461 23.8386 0.874712 -1 0 1
11249 1 48.4678 22.6954 0.869279 0 1 1
6413 2 51.4016 21.7542 1.94212 -1 0 1
4000 2 50.4886 23.9022 1.33845 -1 0 0
7820 1 53.5986 22.6302 2.36494 -1 0 0
15205 2 54.6255 23.5411 0.714189 0 1 1
1003 2 1.69418 24.5684 1.43173 1 1 0
4766 1 1.48303 26.965 1.87232 0 0 0
449 2 3.67272 25.7206 1.44788 0 0 0
2733 1 5.19023 26.9383 2.88793 1 0 0
12883 2 5.85529 25.5115 0.830842 0 0 1
13649 1 6.08567 27.8097 0.969122 0 0 0
3648 2 7.24782 25.8582 2.17386 1 0 0
4774 2 9.57636 25.713 1.1488 0 0 0
14945 2 11.4663 26.0141 2.64959 0 0 1
10128 1 11.6717 26.2057 0.30254 0 0 1
4198 1 9.24808 26.9081 3.28956 0 -1 0
10462 1 13.6531 25.9717 1.36107 0 0 1
16226 1 16.0544 26.7955 2.49946 0 0 1
12428 1 17.7407 25.5437 2.11726 0 0 1
2595 1 19.8509 26.3169 1.74138 0 0 0
13071 1 19.3407 24.8359 0.313442 0 0 1
12209 1 23.23 25.6818 1.79767 0 0 1
10187 2 21.922 27.4643 1.33611 0 1 1
356 2 25.9871 25.79 1.2214 0 0 0
3417 2 24.5004 27.7105 1.53721 0 0 0
13447 1 26.4759 27.5303 3.02941 0 0 1
15835 2 25.0304 25.6443 3.30744 0 0 1
5980 2 28.6851 25.6119 1.73484 0 0 0
9189 1 30.1194 27.1326 0.178013 0 0 1
15256 1 27.9604 27.6175 1.20149 0 0 1
6703 2 30.6146 24.6581 0.53418 0 0 1
15134 2 30.8391 26.5924 2.4192 0 0 1
9798 1 33.207 26.2335 1.80754 -1 0 1
14267 1 35.1852 24.7923 1.66439 0 1 1
1721 2 36.5818 26.3821 1.01676 0 0 0
2549 1 39.7902 25.4507 1.98577 0 0 0
14483 2 37.6736 26.6226 2.9042 -1 0 1
12844 2 38.5309 27.6978 1.2008 0 0 1
2071 1 42.1891 24.998 2.71635 0 0 0
8268 2 41.6702 26.9439 2.03449 -1 0 0
9950 1 41.4157 25.0527 0.404594 0 0 1
15899 1 43.9889 26.5013 2.11477 0 0 1
12453 1 45.4999 25.8164 0.39577 0 0 1
8435 1 48.1367 24.9622 1.01801 0 0 0
14316 2 46.4882 25.925 2.87886 0 0 1
9878 1 47.574 27.4297 0.930484 0 1 0
12163 2 48.8746 24.9318 3.17953 -1 0 1
4997 2 49.9426 26.2184 1.65302 -1 0 0
9608 1 52.6087 24.5778 1.46773 -1 0 1
10816 2 52.3354 26.7535 2.17865 0 0 1
5569 1 54.7184 25.6918 1.52652 -1 0 0
16376 2 1.32705 29.1974 1.47006 1 0 1
12661 2 3.60956 30.4473 1.90454 1 -1 1
2261 1 3.60033 27.9407 1.7224 0 0 0
5450 2 5.25163 29.3696 2.85937 0 0 0
4622 2 6.84111 29.9787 1.09698 0 0 0
6669 1 7.1364 27.8623 3.41214 0 0 0
6283 1 8.34808 28.1225 1.53095 0 0 0
14020 2 8.01026 30.32 3.00609 0 0 1
2750 2 9.29858 30.4074 1.09968 1 1 0
5890 1 10.7624 28.0254 1.69065 0 0 0
599 1 11.5874 30.1464 1.53789 0 0 0
6997 2 10.121 29.359 3.46763 0 0 0
1783 2 14.8001 28.1063 1.06568 1 0 1
14937 2 13.8905 30.1493 2.68132 0 0 1
8318 2 12.825 28.1706 2.63204 1 -1 0
9023 1 17.9429 27.8887 1.85159 1 0 1
5010 2 16.461 29.3564 2.48646 0 0 0
10878 1 18.0763 30.8477 1.67947 1 0 1
7715 1 15.5285 30.5024 0.684066 0 0 0
4051 1 20.2132 28.8874 2.07116 0 1 0
13894 2 24.1733 29.7323 0.337182 0 0 1
6239 2 22.6112 29.327 2.15882 0 0 1
15460 2 26.1953 29.4034 1.43232 0 0 1
1913 1 28.3467 29.8672 0.743554 0 0 0
4472 1 29.888 28.6871 1.89857 0 0 0
640 1 28.0519 29.3072 3.24938 0 0 0
15921 1 32.1819 28.334 1.24287 0 0 1
1710 2 32.0374 30.0349 2.72499 0 0 0
1830 1 32.6149 30.4419 0.546687 0 0 0
12760 1 34.5737 27.5945 0.65601 0 0 1
6610 2 34.2564 29.6773 1.91382 -1 0 0
12860 1 36.2808 28.3914 1.99659 0 0 1
314 1 36.3225 30.6279 3.0196 0 0 0
8578 2 38.5956 29.9648 0.0998563 -1 0 0
11102 2 38.4676 29.6963 2.49303 0 1 0
15188 1 40.4108 29.0494 1.47679 0 1 1
12004 2 42.5819 28.9358 0.744642 0 0 1
7120 1 42.6992 30.4487 2.24051 0 1 0
13577 2 44.8275 30.3766 1.13218 -1 0 1
8088 1 44.7404 28.1922 0.390541 0 0 0
15098 2 43.8235 28.7648 2.81138 0 0 1
15964 2 45.8484 28.0276 2.38937 -1 0 1
2710 2 47.8665 29.5231 2.88448 0 0 0
8916 2 46.6249 29.5456 0.528174 0 1 0
9926 2 49.816 28.4942 1.1927 -1 0 0
12659 2 51.9416 29.053 1.69247 0 0 1
2751 2 50.2365 29.142 3.24444 0 0 0
334 2 54.211 28.1705 1.74661 -1 0 0
14045 1 53.8041 30.4927 1.57506 -1 0 1
4471 1 0.815726 31.4941 1.34122 1 0 0
7167 2 3.21314 32.5062 1.77436 1 0 0
11989 1 6.12793 31.6735 2.64629 0 0 1
8840 1 8.44066 33.7824 2.87935 0 0 0
1852 2 7.79447 32.2483 1.24051 1 0 0
6266 1 9.84061 32.8332 0.515021 1 -1 0
15549 1 9.80696 32.0589 2.73734 1 -1 1
8201 1 12.0384 32.5351 1.18152 0 -1 1
12414 2 14.1137 32.2978 1.83799 1 -1 1
1904 2 16.0944 31.6585 2.63791 0 0 0
12784 2 16.6567 32.5689 0.747337 0 0 1
6417 2 17.4158 33.5152 3.17966 0 0 0
5797 1 19.0103 33.0748 1.41455 0 0 0
4668 2 20.4678 31.1617 1.92737 0 0 0
6741 2 21.1838 33.6854 0.514035 0 0 0
12494 1 22.8444 33.2926 2.13785 0 -1 0
15544 2 22.5538 31.7113 0.414871 1 0 1
10161 1 24.6108 33.4893 0.952186 0 0 0
16108 1 24.4667 31.2671 1.86474 0 0 1
9805 2 26.6158 31.5872 0.682434 0 0 1
1401 1 26.383 33.2918 2.29932 0 0 0
4712 2 28.2506 31.6619 2.38217 0 0 0
14828 1 28.3896 33.921 1.48285 0 0 1
10163 2 30.381 31.1332 1.43641 0 0 1
6563 1 30.1887 32.9081 2.95814 0 0 0
16232 1 30.6517 33.3395 0.838089 0 0 1
9273 1 32.5108 32.2684 2.11102 0 0 1
8922 2 36.4825 30.6612 0.729646 0 0 1
15663 1 34.5065 31.7433 1.33694 0 -1 1
11968 2 36.7974 32.8076 1.72586 0 0 1
15666 1 34.1943 33.7009 2.68628 0 0 1
8589 1 38.9722 32.0993 1.16397 -1 0 0
6719 1 41.0267 31.1618 0.543976 0 0 0
3596 2 40.7487 33.2159 2.13584 -1 0 0
14119 1 42.7939 32.8152 1.4195 0 0 1
6865 2 40.4255 31.1077 3.00177 -1 0 0
10788 1 45.1538 32.6752 0.947107 -1 0 1
4835 1 44.4769 31.9617 3.07118 0 0 0
5873 1 48.7163 30.6215 0.979017 0 0 0
959 2 46.8011 31.7056 2.30876 0 1 0
3958 2 47.8115 33.5746 1.84306 0 0 0
11016 1 51.0021 31.0905 1.56814 -1 0 0
6566 2 50.1704 33.5354 2.03745 0 0 0
12852 2 51.8461 33.1037 0.325689 0 0 1
14035 1 54.2721 32.5902 0.820486 -1 0 1
6690 1 52.5521 32.6562 2.5479 -1 0 0
16212 2 54.7974 31.9097 3.28841 -1 1 1
16335 2 0.247528 34.1199 2.12831 1 0 1
5043 2 1.30229 36.2615 0.700524 1 0 1
15681 1 2.73015 34.7844 2.46406 0 0 1
8989 1 1.73819 33.7618 0.364504 0 0 1
1786 2 6.21409 33.8585 2.02284 1 0 0
11933 1 5.05611 35.8675 2.31762 0 0 0
15696 1 4.3323 34.218 0.688479 0 0 1
7561 2 6.48106 35.7463 0.376126 0 0 0
4201 1 7.40645 35.7486 2.84481 1 -1 0
10310 2 8.67955 34.8202 0.858278 0 0 1
7327 2 10.4936 34.389 2.56629 0 0 1
15799 2 9.64345 36.57 2.52228 1 0 1
15233 2 11.1675 35.3027 0.335544 0 0 1
7137 1 11.9795 36.2448 2.24662 1 0 0
7015 1 13.2491 34.7805 0.995614 0 0 0
5549 2 15.448 34.0347 2.0335 0 0 0
11844 2 15.5922 36.7095 1.0038 0 0 1
12530 1 14.1668 35.9555 2.81969 1 0 1
5370 1 17.3425 35.103 0.729664 1 -1 0
13277 1 16.741 35.6622 2.95573 0 0 1
15240 2 18.8155 36.9385 1.89809 0 0 1
1810 1 19.1545 34.8928 2.88149 0 0 0
4659 1 21.1876 37.3876 1.09124 0 0 0
12039 1 21.1804 35.3035 2.30451 0 0 1
12997 2 23.0638 35.3649 1.01856 0 0 1
14658 2 24.4272 35.103 2.79682 -1 0 1
1639 1 24.5337 37.2348 1.47192 0 0 1
493 2 26.7555 34.0033 -0.00834542 0 0 0
11915 2 26.3278 35.758 1.89681 -1 0 1
13935 2 28.5984 35.7567 0.330378 0 0 1
13268 2 30.3288 35.1622 2.22716 0 0 0
5293 1 28.2913 35.431 3.2761 0 -1 1
14769 1 32.7119 34.4049 1.2784 0 -1 1
11888 1 32.1887 36.3444 2.59446 0 0 0
16052 1 34.9643 33.7378 0.351139 0 0 1
9270 2 34.7634 35.6275 1.79158 0 -1 0
7354 2 36.9746 34.7858 0.954422 0 0 0
4244 1 39.159 34.4815 55.2237 -1 -1 -1
15781 1 38.9194 36.2279 1.79086 0 0 1
6448 1 38.6345 34.1483 2.56626 0 0 0
13875 2 40.9691 35.2747 1.34089 1 0 1
15526 2 42.5335 34.5208 3.08887 0 0 1
5883 1 43.3485 34.9186 0.405088 0 0 1
9136 2 44.685 34.4463 2.2598 0 0 0
10864 2 42.9332 36.3416 2.15792 0 0 0
14863 2 44.7699 36.6201 0.266862 -1 0 1
1802 2 46.4641 35.2278 1.23721 -1 0 0
3731 1 48.7863 35.7959 0.888255 -1 0 0
15155 2 51.0118 35.5644 1.37859 0 0 1
10581 2 49.3023 35.399 3.15707 -1 0 1
10229 1 53.0828 34.6502 1.7009 0 0 0
3214 1 53.9845 36.4082 0.745385 -1 0 0
2055 2 52.2093 37.1105 2.5635 -1 -1 0
4336 1 2.30604 38.55 1.12328 1 -1 0
2103 2 0.529575 38.6207 2.3568 2 -1 0
9706 2 1.98402 37.0603 2.95537 1 -1 0
4239 1 3.58484 36.8124 0.79843 0 -1 0
6704 2 5.60442 38.006 1.06654 1 -1 0
899 1 4.00145 39.855 1.40504 0 0 0
10389 2 4.07959 37.8941 2.88832 1 -1 1
12869 1 8.06241 37.2533 0.991263 0 0 1
10895 2 7.22052 38.1564 3.21477 0 0 1
197 1 7.46464 39.3833 1.09699 0 0 0
3925 2 9.35401 38.8491 2.45562 0 0 0
13687 1 10.9436 37.6613 0.827508 1 0 1
15171 2 11.487 39.9153 2.33284 0 0 1
4438 2 9.51211 40.0835 0.301242 0 0 1
3079 2 13.5196 38.4271 2.0338 0 -1 0
13122 2 16.8691 38.3958 1.3327 0 0 1
8825 2 18.6228 39.6281 2.48036 1 0 0
13962 1 20.8938 38.9048 2.76089 0 0 1
8801 1 19.4523 38.8515 0.444151 0 0 0
15508 2 22.7872 36.908 2.95041 0 -1 1
2077 2 22.8767 38.9499 1.6225 0 -1 0
2157 2 24.31 39.164 55.1147 1 -1 -1
2198 1 23.1401 37.1553 54.8352 0 0 -1
1070 1 25.9329 39.0234 1.93205 0 -1 1
3940 1 26.7162 37.3454 0.309532 0 0 0
11718 1 28.3089 37.4466 1.99285 0 0 1
6048 1 27.987 39.4821 0.861249 0 0 0
13964 1 30.3147 39.7728 0.387701 -1 0 1
2031 1 29.6508 39.2781 2.69171 0 0 0
9253 2 33.1145 36.7522 0.269969 0 -1 0
15670 2 30.7576 37.4192 1.29262 0 -1 0
7449 2 32.6838 38.9497 1.18967 0 -1 0
2578 1 36.5758 36.7856 2.51803 0 0 0
94 1 35.168 37.9498 0.887236 0 0 0
16071 2 35.8914 39.4428 2.39618 -1 0 1
13099 2 34.1651 37.8289 2.81602 0 0 1
14908 2 39.0523 38.6245 0.816764 0 0 1
14248 2 37.0121 39.3064 0.345035 0 0 1
8712 2 38.1837 38.6124 2.74891 -1 0 1
9682 1 41.1606 37.5988 1.33252 -1 0 1
2973 1 41.7194 39.7523 0.8729 0 0 0
12448 1 45.4167 37.0903 2.48555 0 -1 1
3788 2 43.7755 38.6422 1.67166 -1 0 0
6889 1 45.7749 39.4213 2.47608 0 0 0
4046 1 45.5498 39.3811 55.0391 -1 1 -1
2845 1 47.6417 37.1085 2.45985 0 0 0
3230 2 48.0777 39.2581 1.89121 0 0 0
7253 1 47.0136 37.359 0.378896 0 -1 0
10824 2 49.8635 37.429 2.34887 0 0 1
3820 1 51.1086 39.1555 1.29774 0 0 0
8214 1 52.0544 37.3465 0.173287 0 -1 1
5094 2 53.4926 38.7187 1.86349 0 0 0
1861 1 1.82478 40.6867 1.64145 0 0 0
1549 2 0.458134 42.4371 0.610365 0 0 0
589 1 3.19925 41.4214 55.1404 0 0 -1
8610 2 5.73053 39.7058 2.80709 1 0 1
12900 1 4.07207 41.4239 2.88695 1 0 1
2186 2 5.26232 42.5398 0.865134 0 0 0
2883 2 5.58956 40.4764 -0.103355 0 0 1
14661 1 6.35153 42.0397 2.9521 0 0 1
9316 2 7.57549 41.5626 1.10864 0 -1 1
361 1 9.71692 41.3054 2.27579 0 -1 0
5776 2 11.5487 42.5477 2.76418 0 0 0
14270 1 11.3127 41.5956 0.577624 1 0 1
15969 1 13.3713 41.1429 1.58634 0 0 1
14432 1 15.1692 42.9522 1.72443 0 -1 0
16096 2 15.2857 40.3069 2.19662 0 0 1
3833 1 17.6111 40.5959 0.599723 1 0 0
11351 2 17.1025 41.9008 2.66588 0 -1 1
5733 1 18.974 42.0862 1.52543 0 0 1
8660 2 20.8682 40.6493 1.16028 0 0 1
14446 2 21.0692 42.6195 2.29345 0 -1 1
13702 1 22.8292 41.4139 0.444723 0 -1 1
2976 1 24.4393 40.7411 1.8679 0 0 0
2471 2 26.9997 41.0924 2.15975 0 0 0
15140 2 25.2526 41.6299 0.0566081 0 0 1
7268 1 25.6263 42.5842 3.16993 0 0 0
2882 2 29.2783 41.4158 1.80673 0 0 0
4850 2 27.6913 41.5027 55.1431 1 0 -1
2125 2 31.4533 40.7613 2.13947 0 -1 0
682 2 33.5243 42.1725 1.60142 0 0 1
5854 1 33.6539 40.1507 2.88178 0 0 0
9954 2 31.0283 42.8107 0.961455 0 0 1
1415 1 32.465 41.0317 55.1939 -1 0 -1
7237 2 35.7116 41.5369 2.32631 0 -1 0
11782 1 34.6604 40.2425 0.568229 0 0 0
4043 2 36.2863 41.7112 0.034762 0 0 0
6457 2 38.0285 40.9654 1.7831 0 -1 0
948 2 39.7954 42.1171 1.73869 0 0 0
11836 1 40.0059 39.9694 2.65575 0 0 1
7769 1 41.7537 41.4241 2.67696 0 0 0
15752 1 42.2302 41.9857 0.505828 -1 0 1
14185 2 43.9253 40.8373 1.31075 0 1 1
16345 1 45.6927 42.0781 2.92773 -1 0 1
12409 2 44.8724 42.7889 0.673291 0 -1 1
492 1 46.6047 41.0794 1.20845 0 -1 0
12977 1 48.4928 42.2047 2.34596 0 0 1
13980 1 51.0872 42.3987 2.0978 -1 0 1
2684 2 49.6785 40.5825 0.576622 0 0 1
5066 1 49.9836 40.7126 2.91094 -1 0 0
1418 1 54.6122 40.427 0.935441 -1 0 0
15594 2 52.1758 40.8701 0.542991 0 0 1
118 2 53.5069 42.4831 1.82464 0 -1 0
15223 2 52.5703 40.603 2.84164 0 0 1
6249 1 2.89129 42.7445 1.58414 1 -1 0
15427 1 1.2282 44.511 1.50785 0 -1 1
14381 1 3.37379 44.8611 1.21907 1 -1 1
459 1 4.62871 43.6525 2.77042 0 0 0
5773 2 8.21997 43.1314 2.76517 0 0 0
779 2 6.60231 44.5608 1.9165 0 0 0
404 1 8.68131 45.2682 1.41465 0 0 0
5902 2 7.55955 43.6811 0.0392802 0 0 0
8962 2 9.65717 43.2201 0.741857 0 0 0
36 1 10.925 44.6741 2.26915 1 -1 0
6494 1 12.8877 43.4278 1.05544 0 0 0
832 1 12.5399 45.7773 1.20331 1 0 0
5036 1 15.0345 45.1618 1.38701 0 0 0
3780 2 13.3019 44.5668 3.12993 0 0 0
10688 1 17.0408 42.8364 0.225137 1 0 1
3685 2 17.1712 44.1494 2.29705 0 0 0
12148 1 17.3391 45.1512 55.1806 0 0 0
7114 2 19.3303 44.4302 0.636792 0 0 0
13896 1 20.193 45.2113 2.4811 0 0 1
13075 2 23.4822 42.9213 2.28559 0 0 0
14587 2 21.881 44.2136 0.855414 1 -1 1
10301 1 23.339 45.6186 1.61903 1 -1 1
5838 1 26.5508 42.9744 1.04602 0 0 0
8176 1 24.5473 44.1784 0.325304 0 0 1
6134 2 25.5455 44.8706 2.36467 0 0 0
5335 1 26.6925 44.9577 0.152329 -1 -1 0
4196 1 27.7449 45.6142 2.04859 0 0 0
7061 2 28.719 43.6038 0.776871 0 0 0
3077 1 29.9469 45.179 2.02603 0 -1 0
15492 1 27.7881 43.3692 3.00365 0 -1 1
3240 1 32.2294 44.3196 2.21113 0 -1 0
804 1 33.1893 44.2826 -0.0339398 0 0 0
2027 1 35.4174 43.5218 1.15543 0 0 0
5729 2 35.0287 45.6578 0.739557 0 -1 0
159 2 37.6497 43.0242 2.24702 0 -1 0
3010 1 39.1044 44.634 2.36258 -1 0 0
10028 1 37.4603 45.024 0.730501 0 0 1
4211 2 41.2853 43.9794 1.66912 0 -1 0
1454 1 43.5852 42.932 2.27472 0 0 1
4059 1 43.6721 45.6044 1.68073 -1 0 0
12782 2 45.5655 44.7218 2.6766 0 0 1
5177 2 45.1816 44.8232 0.20286 0 -1 1
14016 1 43.0175 44.0486 -0.0531913 0 0 1
4823 2 47.0345 43.4596 1.08674 0 0 0
16220 1 47.8249 45.3492 2.32927 -1 0 1
13550 2 47.5821 45.452 0.133688 0 0 1
8420 1 49.3043 44.1162 1.15007 0 -1 1
9629 2 51.7212 44.475 0.973203 0 0 0
4672 2 54.1633 44.557 1.04752 0 0 1
5245 2 52.383 43.852 3.15886 0 -1 0
52 1 2.33653 46.0001 2.88148 1 -1 0
13318 1 0.35237 48.5686 2.02112 0 -1 1
14061 1 1.68184 46.87 0.919614 1 0 1
12939 1 2.88331 48.3135 2.89901 0 0 1
703 1 4.78022 45.97 2.86203 1 0 0
1588 2 3.83024 47.1338 0.920761 0 0 0
6168 2 5.21928 48.3121 2.51209 0 -1 0
6072 1 6.29898 46.8225 1.10037 1 0 0
11335 2 8.38543 47.7472 0.691794 0 -1 1
4086 2 7.26978 48.982 2.52959 1 0 0
9609 2 10.3233 46.9078 1.47842 -1 -1 0
14511 2 12.3453 48.2482 1.1945 1 -1 1
11941 1 13.9358 46.7901 2.58694 0 0 1
12193 1 14.6169 48.7994 1.62505 0 0 1