ITEM: TIMESTEP
400000
ITEM: NUMBER OF ATOMS
16384
ITEM: BOX BOUNDS pp pp pp
0.0000000000000000e+00 5.5200000000000003e+01
0.0000000000000000e+00 5.5200000000000003e+01
0.0000000000000000e+00 5.5200000000000003e+01
ITEM: ATOMS id type x y z ix iy iz
15145 2 1.67624 1.45175 2.45806 1 1 1
1148 1 1.5459 2.10088 55.2139 1 0 -1
931 1 3.57379 0.727361 1.50935 0 1 0
4369 2 5.5273 1.29719 2.57136 0 0 0
16216 1 5.15702 1.92897 0.213358 0 1 1
6903 1 3.28328 3.02236 1.18867 1 1 0
16006 2 7.45851 0.519438 1.22385 0 1 1
11364 1 7.27284 2.73611 0.939528 1 0 1
4779 2 9.42973 1.70763 0.122781 0 1 0
13600 1 9.47808 0.757183 2.42816 0 0 1
10105 1 11.4768 1.37962 0.98687 0 1 1
14853 2 9.38458 3.03228 2.18834 0 1 1
15767 2 13.3372 0.797132 2.28198 0 0 1
4763 2 15.2444 1.21604 0.784415 0 0 0
538 1 15.2036 2.52922 2.76945 0 0 0
5720 1 17.2755 0.627016 1.82771 0 1 0
9357 1 18.7971 1.26858 0.30935 0 0 0
15324 2 20.7416 0.563862 1.40992 0 1 1
11757 2 18.9486 2.33093 2.47409 0 0 1
12700 1 20.8757 2.8579 1.05059 0 0 1
200 1 22.9036 2.41711 1.96415 0 0 0
15677 1 24.6631 2.46613 0.140983 0 0 1
14831 2 25.0902 1.57817 2.52154 0 0 1
12253 1 26.7832 1.61768 0.930225 1 1 1
4972 2 24.9746 0.0439063 0.619667 0 1 0
4991 2 29.3324 0.929346 1.00326 0 1 0
15945 2 28.8402 3.01653 1.26957 -1 0 1
1270 1 27.5794 0.905471 3.07833 0 0 0
6250 1 31.0518 2.11918 2.11971 1 0 0
7399 2 33.4965 1.23683 2.62662 0 0 0
935 1 33.0877 1.40045 0.388563 0 1 0
4843 2 31.0694 2.36176 -0.0884616 0 1 0
3387 2 35.2923 2.66656 2.58286 0 0 0
8174 2 35.3397 0.676173 1.20287 0 1 0
95 1 35.3892 2.52048 0.0562912 0 0 0
13698 1 39.5184 1.0906 1.82476 -1 0 1
14738 2 37.3889 1.94597 0.849346 0 1 1
13740 2 39.7408 2.84939 0.515871 0 0 1
8721 2 41.9398 2.03167 1.29917 0 1 0
10896 2 41.533 0.0742496 2.2956 -1 0 0
2787 2 40.609 2.80076 2.84376 0 1 0
4861 1 43.9653 1.11291 2.10552 0 1 0
14390 1 46.1408 1.97945 1.85921 0 0 1
15299 1 48.3833 2.48767 2.19549 -1 1 1
3817 2 47.3434 0.0135061 1.38555 0 1 0
11180 2 49.2789 0.809826 0.605854 0 1 1
4576 2 51.1827 0.725678 2.04414 -1 0 0
1599 2 50.4337 2.96583 1.238 0 1 0
8228 2 55.0412 0.879388 1.28641 0 0 1
7984 1 53.0239 1.25462 0.291989 -1 1 1
6199 1 52.6301 2.77408 1.92206 0 0 0
997 1 53.2146 0.679534 3.11272 -1 1 0
2467 1 1.2354 3.87877 1.79604 0 0 0
11083 2 2.82179 5.15599 0.362509 0 1 1
3906 2 3.06788 4.68861 2.90591 0 1 0
2302 2 5.37465 3.67299 2.11935 1 0 0
7359 2 4.72343 6.01069 1.69058 1 0 0
5007 1 6.76564 5.08262 0.895645 0 0 0
13483 1 8.83322 5.53426 2.01014 1 0 1
3854 1 11.0665 3.68007 0.875459 0 1 0
8417 1 10.7481 6.05591 0.668395 1 0 0
6174 2 10.8412 4.86385 2.91038 0 0 1
12750 2 13.2156 2.91328 1.71043 0 0 1
3672 1 12.7575 5.31336 1.45904 0 0 0
11582 2 14.9573 4.80265 2.40759 1 0 0
13273 2 15.1148 3.54364 0.322167 0 1 1
13446 1 14.5976 5.9654 0.176152 0 0 1
2490 2 17.0843 3.06026 1.37903 0 0 0
12123 2 16.7512 5.59345 0.949387 0 1 1
741 1 18.696 4.9407 2.03306 0 1 0
5805 1 20.6825 5.15998 0.559913 1 0 0
15276 2 20.858 4.36564 2.78945 0 1 1
11150 1 18.8642 3.46682 55.2665 0 1 0
11706 1 22.8091 4.53585 1.31264 1 0 1
1053 1 27.034 3.16119 2.79754 0 0 0
3234 1 24.8979 3.84459 2.11814 0 0 0
8293 2 26.5524 5.45913 2.14104 0 0 0
15923 2 26.7383 3.90195 0.492073 0 0 1
182 1 28.6135 5.45149 0.779963 1 0 -1
2756 2 29.0156 4.71608 2.9681 -1 1 0
13511 2 30.9519 4.31952 1.20447 -1 0 1
15588 1 32.4349 5.75138 2.29679 0 0 1
15210 2 32.9909 3.35292 1.73099 0 1 1
9192 1 33.9795 5.26848 0.623642 0 1 1
3907 2 36.1771 4.20166 1.29233 -1 1 0
14915 1 38.4394 3.62906 2.18265 -1 1 1
1370 1 38.3103 5.68694 0.953973 0 0 0
3213 2 40.4671 4.94315 1.61088 -1 0 0
4450 1 42.5786 4.12138 2.46319 0 0 0
12310 2 42.5492 6.0258 0.998156 0 0 0
11637 2 43.7608 3.23904 0.796783 0 0 1
11065 1 44.6189 5.23059 1.63637 0 1 1
15500 2 45.9391 3.76178 0.178037 -1 0 1
16299 2 46.8564 4.3123 2.47077 0 1 1
15239 2 48.2728 4.07321 0.527556 -1 1 1
11617 1 51.849 5.02844 1.29358 0 0 1
574 2 54.568 3.21652 0.559362 0 1 0
9823 2 54.1908 4.87674 2.15223 -1 1 1
1958 1 0.575871 6.04436 0.92589 1 1 0
4274 2 2.45516 7.02451 2.31007 1 0 0
10240 1 0.197349 7.81801 2.70025 1 1 1
5849 2 4.05766 8.38771 1.1059 0 1 0
8232 2 5.95365 8.45296 2.47528 1 0 0
2254 1 6.34252 7.33083 0.501698 0 0 0
14311 1 8.3 7.64512 1.68157 1 1 1
16284 2 6.78336 6.42329 3.02581 0 1 0
15036 2 10.2102 8.256 0.568474 1 1 1
4865 2 10.2567 7.18916 2.82525 0 1 0
14551 2 12.2955 7.70096 1.27382 0 0 1
7665 1 14.412 7.18833 2.17184 0 0 1
1266 1 14.12 8.33405 55.1659 0 0 -1
16029 1 16.2177 7.75073 0.845499 0 1 1
13787 1 15.7945 9.0154 2.80249 0 0 1
11392 1 18.3369 7.1727 1.41648 1 0 1
5132 1 20.6451 6.71879 2.34041 0 0 1
11634 2 19.9083 8.9003 2.04934 0 0 1
1637 1 20.2912 7.54909 55.261 0 0 -1
7462 2 22.4746 6.92573 0.751589 0 0 0
49 1 24.1438 8.62391 1.08013 0 0 0
1167 1 22.1231 8.42979 2.59133 0 0 0
4146 2 24.45 6.12986 1.50282 0 0 1
5647 2 26.2479 7.75456 1.77774 0 0 0
3282 2 28.3753 6.95514 2.86095 0 0 0
4864 1 30.3382 6.53368 1.41035 0 1 0
1551 1 28.1823 7.78911 0.389816 0 0 0
1139 2 30.1665 8.77042 0.808931 0 0 0
1887 2 30.2156 8.22314 2.97643 0 1 0
4691 1 32.381 7.9399 1.42438 0 0 0
13065 2 34.5 7.28075 2.00113 0 0 1
535 2 36.1759 6.45406 0.248085 0 0 0
719 2 36.6441 6.35748 2.6791 -1 0 0
11255 1 36.771 8.40459 1.35344 0 1 1
14427 1 34.4864 9.1132 0.763408 0 0 1
6945 2 38.927 7.49611 2.13943 -1 0 0
2538 2 40.3967 6.9485 0.344536 0 1 0
9399 1 41.3266 8.77613 1.53231 0 0 0
14791 1 41.2068 6.93875 2.76879 -1 1 1
5457 2 43.5097 8.02366 2.04864 0 0 0
5455 1 44.851 7.22145 0.18691 -1 0 0
6659 2 45.5639 7.15243 2.62667 -1 0 0
12208 1 45.8682 9.05392 1.1255 0 1 1
7033 1 46.881 6.04387 0.78168 0 1 0
2142 1 47.965 7.87971 1.51856 -1 0 0
4918 2 49.6708 6.22206 1.26867 0 1 0
16322 1 51.0167 8.44459 1.93858 -1 1 1
5187 2 51.3801 7.00397 -0.0446078 -1 1 1
4457 2 51.0429 6.39665 3.01816 -1 0 0
3334 2 53.0991 6.93641 1.52037 -1 0 0
14072 1 53.2099 8.89639 2.53181 0 1 1
374 1 52.4909 9.13036 0.407892 0 0 0
10758 2 54.9082 8.3167 0.438094 -1 1 1
5310 1 1.77963 9.20177 1.54924 1 0 0
1896 2 1.4238 11.4745 0.772023 0 0 0
8536 1 2.8248 11.1583 2.518 0 0 0
343 2 5.07016 10.3683 2.17357 0 0 0
1344 2 3.57279 10.6054 0.328285 1 0 0
14210 2 7.59402 9.8447 1.61284 0 1 1
15768 1 8.79663 11.7139 2.53535 0 1 1
15955 1 7.34838 11.8545 0.478243 1 0 1
13607 2 9.27052 10.6897 0.358843 0 0 1
15148 1 9.69018 9.45895 2.51416 0 1 1
993 1 11.5492 10.2004 1.2984 0 1 0
10600 2 13.7491 9.51906 2.16401 0 0 0
9228 1 12.9814 11.99 2.00111 0 0 1
4436 1 15.1647 11.4961 2.79823 0 0 0
1009 2 15.5095 10.1872 0.800654 0 1 0
4447 1 17.7262 9.51519 1.30588 0 0 0
14454 2 17.0273 11.875 1.32499 1 0 1
5593 1 19.2761 11.1959 1.90118 0 0 0
496 1 21.8665 9.37862 0.410517 0 0 0
7603 2 21.5736 10.7662 2.25121 0 0 0
9353 2 23.5767 10.9619 0.691872 0 0 0
1490 2 23.7338 10.142 3.08211 0 0 0
4266 1 25.7069 10.2545 1.44312 0 0 0
2510 2 27.4812 11.8383 1.45831 0 0 0
9785 1 28.0088 9.3775 2.22612 0 0 0
6771 1 29.5218 10.8934 1.81021 0 0 0
5351 2 27.9934 10.0192 0.0792038 0 0 0
9486 1 31.6138 10.0382 2.42778 0 0 0
10464 1 31.5696 12.0892 1.32532 0 0 0
2292 2 32.4243 9.90046 0.304286 0 0 0
14442 1 33.6655 11.1836 1.80153 0 0 1
2607 2 35.887 10.5799 2.07859 0 0 0
14320 2 39.071 9.48755 0.829854 0 1 1
950 2 38.1614 11.9031 1.55853 0 1 0
7360 2 36.9225 10.1652 -0.000597352 0 0 0
6314 1 40.3321 11.0173 2.20724 0 0 0
1589 2 42.7077 10.3169 2.6053 0 0 0
8527 1 41.3849 10.6662 0.155513 -1 0 1
6988 2 43.7301 9.93639 0.64116 -1 0 0
11811 1 44.473 11.6485 2.06875 0 0 1
642 1 44.9074 9.68667 3.23971 -1 0 0
15399 2 46.6382 10.9582 2.44778 0 0 1
10487 2 47.966 10.0968 0.423821 0 0 1
4869 2 48.6446 12.1937 1.5924 -1 1 0
1715 1 49.0368 9.98802 2.64795 0 0 0
8632 1 50.4429 10.3867 0.870302 0 0 1
2084 2 55.008 10.2265 1.46373 0 0 0
15925 1 52.8941 11.0708 1.40501 0 0 1
12353 1 54.4858 12.292 0.462834 -1 0 1
16307 1 0.521826 12.2202 2.69279 1 1 1
7515 2 2.30757 13.4702 1.70871 1 0 1
15530 2 55.1398 14.4383 1.53614 0 0 1
11889 1 4.64234 12.5153 1.38056 0 0 0
11755 1 4.63972 14.3945 2.83107 0 0 1
8551 2 4.02733 14.665 0.417782 0 0 1
4233 2 6.75139 13.0103 2.47198 0 0 0
13574 1 8.54351 13.8153 1.28592 0 0 1
5184 1 6.24232 13.7388 -0.0139413 1 0 1
4787 2 10.6115 12.4794 1.11018 0 0 0
5316 2 12.0527 14.2199 1.95992 0 0 0
922 2 14.3965 13.7949 2.67803 0 1 0
10777 2 14.8794 12.538 0.545004 0 0 1
11976 1 14.1993 15.0593 0.463307 0 0 1
3346 1 16.2669 14.2969 1.21873 0 0 0
1130 1 18.5885 13.6002 1.6657 0 0 0
10732 2 20.7688 13.0966 1.92431 0 0 1
15400 2 23.1412 12.4743 2.65308 0 0 1
12325 1 23.896 14.4963 1.91208 0 -1 1
1999 1 22.8925 13.2392 0.285594 0 0 0
14153 1 21.8018 15.1546 1.38197 0 0 1
2054 1 25.1205 12.5368 0.955055 0 0 0
15086 2 26.0073 13.8469 2.39164 0 0 1
814 2 27.5286 14.3091 0.737124 0 0 0
13339 1 29.5128 13.0884 1.03022 0 -1 1
12252 2 30.1215 14.7943 2.66703 0 1 1
15082 1 28.2558 13.4304 3.0633 0 1 1
14197 1 32.2179 13.8682 2.85765 0 1 1
2266 1 31.4451 14.2382 0.48 0 0 0
7679 2 33.675 13.375 0.808869 0 0 0
6204 2 35.889 12.7022 1.04905 0 0 0
3872 2 36.3644 14.4871 2.60511 0 0 0
6886 1 35.4832 14.8307 0.425887 0 0 0
5272 1 34.1975 15.2685 2.32574 0 0 0
13855 2 34.5086 12.952 3.15762 0 0 1
11207 2 37.7758 14.0739 0.638507 -1 1 1
12650 2 38.5805 13.8478 2.82964 1 0 1
9303 1 40.0901 13.1036 0.991787 -1 0 1
12726 2 42.2641 12.2471 1.45929 0 0 0
2781 2 41.9412 14.6108 0.508739 0 1 0
2917 1 40.6483 15.1347 2.33184 0 1 0
11493 2 42.8832 14.3539 2.77642 0 0 0
1503 1 44.2897 13.7258 0.861914 0 0 0
14474 2 46.0113 15.2669 0.179427 -1 0 1
794 2 46.4544 13.0723 1.17603 -1 1 0
15582 1 48.2162 14.4389 0.529804 -1 0 1
5350 2 46.9929 15.0625 2.50089 0 0 0
7857 1 49.2181 14.2201 2.78461 0 0 0
9375 2 50.9243 12.5547 2.12123 0 -1 0
7529 1 50.5311 14.9109 0.955301 0 0 0
3472 2 52.4283 13.4461 0.359758 -1 0 0
14219 2 53.2527 13.0848 2.43943 -1 1 1
2111 1 2.74381 15.6047 2.72119 1 0 1
13424 2 0.477665 16.4333 2.58557 0 0 1
7752 1 1.8906 15.8443 0.53807 0 0 0
2262 1 2.46646 17.8386 1.67006 0 0 0
10574 2 4.4795 16.8037 1.51467 0 0 1
15900 1 6.33593 15.2566 1.55526 0 0 1
3574 2 6.3889 17.9577 1.63021 1 0 0
264 2 8.11458 16.6555 1.67325 0 0 0
12612 1 10.1181 15.4733 1.77531 0 0 1
3550 2 11.3213 17.3304 2.48336 0 0 0
14527 2 11.9911 16.1448 0.496227 1 0 1
8948 2 9.89906 17.3611 0.450698 0 0 0
7532 2 13.604 16.0592 2.52615 0 0 1
8655 1 14.1355 17.5637 0.415708 0 0 0
7556 2 15.9152 16.5694 1.54874 0 0 1
6972 1 17.817 15.6559 2.54508 1 0 1
9876 1 17.9534 17.0957 0.44946 0 0 0
10598 1 17.5531 17.9856 2.63416 0 0 1
13346 2 19.8578 16.1796 1.208 0 0 1
12624 2 21.6914 16.9336 2.86129 0 0 1
13142 1 23.6059 16.5163 0.706945 0 1 1
5305 2 24.1593 18.1475 2.21727 0 0 0
15953 1 22.1292 18.261 0.83046 0 0 1
10815 1 25.6699 16.1189 1.74689 0 0 1
1675 2 27.7838 17.8651 1.39896 0 1 0
12918 1 29.5738 15.6421 0.590101 0 0 1
3706 1 27.8984 15.7441 2.51921 0 0 0
12872 2 29.9871 17.2697 2.15551 0 0 1
2201 2 32.0111 15.9323 1.91833 0 0 0
12595 1 31.6368 17.4652 0.389958 1 0 1
11605 1 33.8985 17.4319 1.2464 -1 0 1
7584 1 36.0591 16.7005 1.60334 0 0 0
15280 2 38.3818 15.984 1.99927 0 1 1
9821 2 38.0115 18.1639 0.828304 0 0 0
14917 2 40.2587 17.2361 1.15447 -1 0 1
11370 1 42.5102 16.6251 1.55981 0 0 1
6260 1 44.6461 15.7201 2.07586 0 0 0
1398 1 44.2998 18.031 1.06035 0 0 0
3411 2 46.6689 17.3213 1.54759 -1 1 0
10587 1 48.8017 16.4311 1.7473 -1 0 1
6458 2 51.2504 16.9358 2.11679 0 0 1
8307 1 50.195 17.269 0.0124883 0 0 0
8927 1 52.976 15.5797 1.48316 0 0 1
2164 1 54.7696 16.6526 0.606353 0 0 0
9183 1 53.6612 17.5217 2.60111 -1 1 0
213 2 52.5606 17.9049 0.480936 -1 0 0
14583 2 2.21327 20.1054 2.0556 1 0 1
10278 2 0.152058 18.7932 1.73321 1 0 1
2388 1 4.3613 19.2668 1.90099 0 0 0
6366 1 3.86893 21.3554 0.773958 0 0 0
10360 2 6.13552 20.4646 0.628964 1 -1 0
15992 1 7.2779 20.1902 2.63845 0 0 1
8181 2 8.08847 19.0016 0.669457 0 0 1
16235 1 9.38592 21.2415 2.64209 0 0 1
12433 1 11.8878 18.4657 0.626191 0 0 1
15898 1 9.31857 18.7935 2.5661 0 0 1
15556 2 10.0967 20.0078 0.611358 0 0 1
10951 1 11.5024 19.7566 2.43864 0 0 0
15316 1 13.5066 18.5947 2.47312 0 1 1
8722 2 13.5239 20.2952 1.01089 0 0 0
3222 2 15.6572 19.0344 1.61114 0 0 0
3311 1 17.1861 20.6806 2.66285 0 0 0
13663 2 18.1556 19.3672 0.898744 0 0 1
5611 2 20.0415 18.6157 1.89826 1 0 0
13845 2 19.9979 21.0039 2.07135 0 0 1
1491 2 22.0983 19.5758 2.98067 0 0 0
5505 1 22.0096 20.6135 0.77465 -1 0 0
8528 2 24.094 20.5753 2.06095 0 0 1
2319 1 24.0043 19.3845 0.118138 0 0 0
4331 2 25.9414 19.4198 1.65615 0 0 0
13890 2 27.8965 20.3477 0.83927 -1 0 1
12284 1 30.1233 19.3379 0.96595 0 1 1
9654 2 28.4591 19.593 2.87306 0 0 1
9978 1 30.3886 21.0645 2.73626 0 0 0
10898 2 32.2501 19.6465 1.94436 0 0 1
549 1 33.9287 21.1809 1.22986 0 0 0
16182 2 34.4411 19.3571 2.51445 0 0 0
14393 2 36.1984 20.7612 1.78166 0 0 1
3643 2 35.6988 18.9077 0.57498 0 0 0
1969 1 36.6694 18.4992 2.81059 0 0 0
4020 1 38.4399 19.9765 2.17567 0 1 0
11701 1 39.7842 19.5765 0.229156 0 0 1
2412 2 42.0725 18.7145 0.507239 0 0 0
5879 1 40.7135 19.3 2.40693 0 0 1
3692 2 42.5347 20.6423 1.87631 0 0 0
11476 2 42.8748 18.5301 2.96277 -1 0 1
13944 2 44.7779 19.9462 2.31941 0 1 1
399 1 48.4236 18.64 0.920736 -1 0 0
477 2 46.2028 19.2767 0.410249 0 0 0
2561 2 47.0801 19.1661 2.84931 -1 0 0
1705 2 46.6199 21.3308 1.89023 0 1 0
3760 2 48.8931 20.5032 2.13522 0 0 0
1605 1 50.7793 19.4465 1.19784 -1 0 0
6413 2 51.1195 21.4435 2.23858 -1 0 1
3782 1 -0.002416 21.1579 2.35107 1 0 0
8884 2 53.1547 20.1413 1.78702 -1 0 0
3890 1 54.4124 21.1711 0.167918 0 1 0
3408 2 1.56718 22.253 1.00379 0 0 0
15421 2 2.98571 22.1325 2.92695 1 -1 1
1558 1 0.851163 23.2766 3.26352 1 0 0
11096 2 5.24077 21.5132 2.7819 0 0 1
4145 2 3.74599 23.5398 1.17385 1 0 0
15151 1 5.33091 24.1409 2.80718 0 0 1
16054 1 6.05652 22.9041 0.799553 1 1 1
11385 2 8.0668 21.6686 0.668141 1 0 1
5386 2 7.34939 22.9228 2.86458 0 -1 0
15619 1 8.04969 23.9804 0.532319 0 0 1
6395 1 9.45911 23.493 2.08366 1 0 1
13488 2 11.2948 21.918 1.56663 1 0 1
3755 2 11.7117 24.1111 0.767359 1 0 1
47 1 13.3507 22.6043 1.1705 1 0 0
13793 2 14.9468 24.1597 2.10654 0 0 1
4661 1 18.0521 21.7928 0.692648 0 0 0
13540 2 15.5258 21.8309 1.32617 0 -1 1
16274 1 16.9909 23.9709 0.702528 0 0 1
2426 2 17.0297 22.9772 2.93315 1 0 0
12905 2 19.1681 23.6747 1.70839 0 0 1
5411 2 20.6663 22.6904 0.225187 0 0 0
1679 1 21.3725 24.3878 1.84156 0 0 0
11779 1 22.6581 22.3966 1.92836 -1 0 0
10179 2 24.6981 23.9259 1.6201 0 1 0
410 1 26.0847 21.909 1.38766 0 0 0
669 2 26.554 23.8538 2.97264 0 0 0
6940 1 27.5866 23.7869 0.976158 -1 0 1
930 1 28.2727 21.9229 2.43137 0 1 0
13282 2 29.8159 23.639 2.10143 0 0 1
58 1 29.6963 21.8613 0.532442 0 -1 0
740 1 31.8566 22.3741 1.43867 0 0 0
8120 2 33.6636 23.8678 0.624909 1 1 1
12027 1 35.5866 22.6252 0.669679 0 0 1
7667 2 34.149 22.9352 2.84434 0 0 1
12140 2 37.8825 22.3638 0.987874 0 1 1
13162 1 39.8689 23.6999 0.664101 0 1 1
14790 2 38.0519 24.3216 2.07587 -1 1 1
9431 2 40.179 21.4561 1.4823 0 0 1
12406 1 40.6909 23.3151 2.88005 0 0 1
11166 2 42.0878 23.1025 1.17923 0 0 1
14297 1 44.3714 22.1096 1.45135 0 1 0
7601 2 43.7117 24.5342 0.606184 0 0 0
10019 2 44.7411 24.1444 2.80601 0 1 1
10455 2 46.1902 23.6611 0.980145 -1 0 1
11249 1 48.3285 22.5872 1.41867 0 1 1
4000 2 50.5516 23.6049 1.14052 -1 0 0
7820 1 53.2672 22.3429 2.65264 -1 0 0
15205 2 54.7832 23.3462 1.32244 0 1 1
15762 2 52.5359 22.2521 0.53494 -1 0 1
9608 1 52.7294 24.3765 1.44139 -1 0 1
1003 2 1.68813 24.6022 1.78223 1 1 0
4766 1 1.32821 27.0274 1.71453 0 0 0
449 2 3.79407 25.6743 1.30752 0 0 0
2733 1 5.41477 26.4671 2.72565 1 0 0
12883 2 5.95416 25.3114 0.756775 0 0 1
3648 2 7.49586 25.4373 2.29429 1 0 0
4774 2 9.52833 25.8194 1.31571 0 0 0
14945 2 11.3527 25.5904 2.4026 0 0 1
10128 1 11.4551 26.3912 0.0322978 0 0 1
4198 1 9.50331 27.7147 3.06036 0 -1 0
10462 1 13.4331 25.7473 1.41541 0 0 1
16226 1 15.4033 26.4922 3.01239 0 0 1
12428 1 17.2134 25.2274 2.44332 0 0 1
7262 2 15.9051 26.1231 0.526274 0 -1 0
9023 1 18.3513 27.0147 0.220374 1 0 1
2595 1 19.2875 26.0016 2.02012 0 0 0
10187 2 21.3299 27.0777 1.91594 0 1 1
13071 1 19.5353 25.0924 -0.116892 0 0 1
12209 1 23.2713 25.6929 1.71184 0 0 1
1952 1 21.6684 25.6573 55.1054 0 1 -1
356 2 26.1447 25.6492 1.19084 0 0 0
3417 2 24.6854 27.549 1.6162 0 0 0
13447 1 26.5971 27.55 3.07351 0 0 1
5980 2 29.01 25.461 1.49224 0 0 0
9189 1 30.2172 27.1105 0.397367 0 0 1
15256 1 27.9473 27.516 1.24671 0 0 1
12086 2 32.0956 24.2839 2.81137 0 0 1
6703 2 31.516 24.7978 0.565195 0 0 1
15134 2 31.3088 26.6221 2.40753 0 0 1
9798 1 33.504 25.9654 1.66597 -1 0 1
14267 1 35.626 24.6335 1.92036 0 1 1
1324 2 35.5162 26.8529 3.00284 0 0 0
12760 1 34.6673 27.5635 0.32772 0 0 1
1721 2 36.7404 26.3485 0.889825 0 0 0
14483 2 37.8887 26.2108 2.96847 -1 0 1
12844 2 39.0099 27.5475 1.05786 0 0 1
2549 1 40.101 25.5724 1.99014 0 0 0
2071 1 42.4304 24.9445 2.65635 0 0 0
8268 2 42.0159 27.1008 1.86132 -1 0 0
9950 1 41.5061 25.3368 0.273789 0 0 1
15899 1 44.3068 26.3365 2.04582 0 0 1
12453 1 45.7062 25.894 0.361073 0 0 1
8435 1 48.174 24.735 0.885127 0 0 0
14316 2 46.5844 25.6682 2.61954 0 0 1
9878 1 47.6342 26.9086 0.938795 0 1 0
12163 2 49.2078 24.7527 2.98695 -1 0 1
4997 2 50.5409 25.9834 1.46001 -1 0 0
10816 2 52.4771 26.2893 2.61951 0 0 1
5569 1 54.64 25.5714 1.91397 -1 0 0
11971 2 53.2672 26.343 0.209274 -1 0 1
16376 2 0.819499 29.3434 1.7241 1 0 1
12661 2 3.11405 30.2093 1.70731 1 -1 1
2261 1 3.32247 27.925 1.34244 0 0 0
5450 2 5.22704 28.9459 2.34824 0 0 0
13649 1 5.71319 27.7237 0.720499 0 0 0
381 1 4.47503 29.4385 55.1729 1 0 -1
6283 1 7.84845 27.5671 1.54863 0 0 0
4622 2 6.83398 29.7283 1.08513 0 0 0
14020 2 8.61841 29.709 2.30738 0 0 1
2750 2 9.22742 30.5141 0.103365 1 1 0
5890 1 10.0563 28.2027 0.789174 0 0 0
599 1 11.3148 30.1602 1.30361 0 0 0
8318 2 12.2026 27.7212 2.01198 1 -1 0
1783 2 14.512 27.8849 1.02083 1 0 1
14937 2 13.3771 29.7566 2.20548 0 0 1
7715 1 15.4093 30.193 0.615319 0 0 0
5010 2 17.2998 27.4136 2.10695 0 0 0
10878 1 17.3686 29.7486 2.09718 1 0 1
4051 1 19.3397 28.5522 2.09218 0 1 0
15543 1 21.2569 29.1031 0.377732 1 0 1
4668 2 20.5327 30.6765 2.00162 0 0 0
6239 2 22.7095 29.1284 1.89974 0 0 1
15460 2 26.3608 29.3534 1.50956 0 0 1
1913 1 28.536 29.7209 0.603487 0 0 0
4472 1 30.1332 28.7556 2.07566 0 0 0
640 1 27.9874 29.2865 3.21108 0 0 0
15921 1 32.5794 28.2256 1.07141 0 0 1
1710 2 32.1913 29.7185 2.73195 0 0 0
1830 1 32.6933 30.4502 0.350879 0 0 0
6610 2 34.6513 29.1815 1.99242 -1 0 0
314 1 36.5529 30.4388 2.89174 0 0 0
12860 1 36.929 28.3787 1.89929 0 0 1
11102 2 38.702 29.6181 2.54795 0 1 0
8578 2 39.0348 29.8476 0.291016 -1 0 0
8922 2 37.0246 30.6422 0.703544 0 0 1
15188 1 40.7898 28.9379 1.67329 0 1 1
7120 1 42.8953 30.5331 2.51036 0 1 0
12004 2 43.1649 28.9645 0.832039 0 0 1
13577 2 45.1696 30.0224 2.01751 -1 0 1
8088 1 45.3666 28.1032 0.653431 0 0 0
15098 2 44.1692 28.4543 3.07178 0 0 1
15964 2 46.3894 27.8695 2.8018 -1 0 1
2710 2 48.1672 29.5069 2.8368 0 0 0
8916 2 47.3146 29.2016 0.714146 0 1 0
5873 1 49.4044 30.226 0.76103 0 0 0
9926 2 49.7007 28.0257 1.276 -1 0 0
12659 2 51.889 28.6747 1.34074 0 0 1
334 2 54.0638 27.8986 1.94931 -1 0 0
14045 1 53.8481 30.2769 1.41631 -1 0 1
4471 1 1.12765 31.7022 1.30102 1 0 0
7167 2 3.68365 32.2906 1.56756 1 0 0
11989 1 5.97517 31.4138 2.63122 0 0 1
3013 1 5.52104 31.6025 0.196553 0 0 0
1852 2 7.87499 32.0229 1.44148 1 0 0
1786 2 6.17555 33.5394 1.79476 1 0 0
6266 1 9.82353 32.8435 0.378757 1 -1 0
15549 1 9.99621 31.6543 2.47057 1 -1 1
8201 1 12.0189 32.419 1.16872 0 -1 1
12414 2 14.1252 31.9548 1.82804 1 -1 1
1904 2 16.0879 31.5817 2.49984 0 0 0
12784 2 16.3332 32.3474 0.404697 0 0 1
5797 1 18.4348 31.8092 1.13758 0 0 0
6741 2 20.8006 32.9876 0.853121 0 0 0
14108 2 19.5455 33.4023 2.7774 0 0 1
15753 1 21.7013 32.5997 2.78683 0 -1 1
15544 2 22.506 31.3122 0.480531 1 0 1
16188 2 24.3081 32.6828 3.14867 0 0 1
16108 1 24.4102 30.8609 1.77472 0 0 1
12494 1 23.1079 33.888 1.46104 0 -1 0
10161 1 24.8425 32.7579 0.596871 0 0 0
9805 2 26.4347 31.3324 0.544291 0 0 1
1401 1 26.5212 33.1888 2.2469 0 0 0
9218 1 26.1213 30.9937 3.09117 -1 -1 0
4712 2 28.1532 31.5322 2.07154 0 0 0
6563 1 30.4266 32.8759 2.99704 0 0 0
7986 2 28.8383 31.9547 55.0343 1 0 -1
10163 2 30.5812 31.0248 1.37529 0 0 1
16232 1 31.0567 33.2304 0.569772 0 0 1
9273 1 32.6023 32.156 1.89336 0 0 1
15663 1 34.8022 31.5373 1.16111 0 -1 1
15666 1 34.6174 33.4279 2.64434 0 0 1
11968 2 36.9759 32.5725 2.0241 0 0 1
8589 1 39.2355 31.9036 1.3792 -1 0 0
6719 1 41.3413 30.6957 0.459958 0 0 0
3596 2 41.2785 32.9487 2.12408 -1 0 0
14119 1 43.4072 32.686 1.83781 0 0 1
10788 1 45.6214 32.37 0.957659 -1 0 1
959 2 47.0712 31.546 2.53084 0 1 0
447 1 47.605 31.6899 0.180389 0 0 0
11016 1 51.5532 31.1439 1.12421 -1 0 0
6566 2 50.3789 33.7274 1.97046 0 0 0
2539 1 49.5681 31.3965 2.89418 -1 0 0
3865 2 49.6977 32.6115 0.282485 -1 0 1
14035 1 54.2002 32.3926 0.775824 -1 0 1
6690 1 52.7376 32.8424 2.45543 -1 0 0
16212 2 55.0445 31.8895 3.07655 -1 1 1
8989 1 2.08912 33.8874 0.137405 0 0 1
16335 2 0.440767 34.0115 2.05135 1 0 1
5043 2 1.29777 35.984 0.731672 1 0 1
15681 1 2.9343 34.5013 2.28188 0 0 1
9706 2 2.12595 36.5981 2.64999 1 -1 0
15696 1 4.59813 33.7557 0.0362055 0 0 1
11933 1 5.06325 35.5946 2.47782 0 0 0
4239 1 3.67435 35.7569 0.514049 0 -1 0
7561 2 6.24064 35.6638 0.435491 0 0 0
10310 2 8.42461 34.7451 0.911589 0 0 1
4201 1 7.2976 35.3376 2.87071 1 -1 0
7327 2 10.7833 34.2072 2.26147 0 0 1
15799 2 9.6194 36.149 2.44689 1 0 1
15233 2 11.1568 35.4185 0.53283 0 0 1
7137 1 12.4924 36.1719 2.26681 1 0 0
7015 1 13.2775 34.5867 1.00451 0 0 0
12530 1 14.9448 36.3255 1.26885 1 0 1
5549 2 15.3774 33.9107 1.7711 0 0 0
5370 1 17.6894 34.1059 0.984063 1 -1 0
13277 1 16.6877 35.7908 2.9536 0 0 1
11844 2 17.249 36.4583 0.595499 0 0 1
1810 1 18.809 35.729 2.26031 0 0 0
12039 1 21.0956 34.9368 2.17235 0 0 1
7711 1 19.7668 34.9325 0.147637 0 0 1
15508 2 22.8606 36.5101 2.01476 0 -1 1
14658 2 24.8631 35.0548 2.36624 -1 0 1
11915 2 26.9752 35.3422 1.18718 -1 0 1
14828 1 28.8604 33.7586 1.55844 0 0 1
13935 2 29.1276 35.9032 0.458761 0 0 1
5293 1 28.7005 35.4636 2.96024 0 -1 1
13268 2 30.8878 35.2572 2.24501 0 0 0
14769 1 32.9949 34.4821 1.45053 0 -1 1
11888 1 32.8264 36.7063 1.60151 0 0 0
5059 1 31.2837 35.3758 0.0576052 0 0 0
16052 1 35.3913 33.7976 0.329653 0 0 1
9270 2 34.9737 35.5616 1.83957 0 -1 0
7354 2 37.4706 34.6492 0.912711 0 0 0
15781 1 39.2446 36.2773 1.73781 0 0 1
6448 1 39.0344 34.0499 2.6307 0 0 0
4244 1 39.8953 33.9264 0.610693 -1 -1 0
13875 2 41.4138 35.5653 1.64658 1 0 1
9136 2 45.3262 34.3845 2.34408 0 0 0
5883 1 43.3334 34.5523 0.656879 0 0 1
10864 2 43.7525 36.2946 1.88881 0 0 0
3958 2 47.8017 33.6627 1.79812 0 0 0
1802 2 46.8009 35.6978 1.12986 -1 0 0
3731 1 48.9954 35.8032 1.01984 -1 0 0
15155 2 51.346 35.7172 1.05481 0 0 1
10581 2 49.4556 35.4433 3.31139 -1 0 1
10229 1 53.3435 34.8062 1.53077 0 0 0
13871 1 54.8767 36.1457 2.63082 0 0 1
3214 1 54.1477 36.7494 0.439599 -1 0 0
4336 1 2.7484 37.8891 0.75413 1 -1 0
2103 2 0.684565 38.3279 2.1512 2 -1 0
6534 1 0.591022 38.2687 55.0478 0 0 -1
6704 2 5.35106 37.6063 1.03642 1 -1 0
899 1 4.54426 39.6017 1.81545 0 0 0
10389 2 4.00921 37.6348 2.74381 1 -1 1
2883 2 6.2672 39.8048 0.185054 0 0 1
12869 1 7.77939 37.0984 1.52939 0 0 1
197 1 8.70752 38.9278 0.740682 0 0 0
10895 2 6.77902 38.9129 2.35512 0 0 1
3925 2 9.39543 38.4971 2.865 0 0 0
13687 1 10.7586 37.8967 0.965244 1 0 1
15171 2 12.463 39.4155 1.29909 0 0 1
998 1 11.7644 38.0978 3.12108 0 0 0
3079 2 14.0014 38.1153 2.46919 0 -1 0
3858 1 15.1317 38.9693 0.801543 0 0 0
10279 1 13.1968 37.3995 0.360861 0 -1 1
6363 1 16.3002 38.0232 2.59076 0 0 0
13122 2 17.7611 40.066 1.75003 0 0 1
12754 2 18.5701 37.9306 2.04225 0 0 1
4659 1 20.6846 37.1394 1.16844 0 0 0
13962 1 20.6962 39.2133 2.62357 0 0 1
8801 1 19.847 39.4928 0.520591 0 0 0
2077 2 22.5285 38.8108 1.18905 0 -1 0
2157 2 24.4558 39.1436 0.193084 1 -1 0
1712 1 24.5589 38.4994 2.59788 0 0 0
1639 1 25.3219 37.0618 0.774861 0 0 1
1070 1 26.5387 39.0524 1.58583 0 -1 1
8705 1 26.2413 37.1154 2.95639 0 0 1
6048 1 28.5884 39.3649 0.493738 0 0 0
11718 1 28.3652 37.6065 2.19054 0 0 1
2031 1 29.7831 39.5019 2.57556 0 0 0
15670 2 30.6629 37.7571 1.33665 0 -1 0
7449 2 32.6242 38.8883 0.55129 0 -1 0
12663 2 31.85 38.5743 3.01552 0 0 0
16071 2 36.0216 38.8619 2.38049 -1 0 1
13099 2 34.837 37.639 0.897444 0 0 1
2578 1 37.004 36.6017 1.94581 0 0 0
14908 2 39.5668 38.5027 1.0764 0 0 1
14248 2 37.1172 39.1616 0.561859 0 0 1
8712 2 38.2248 38.3462 2.69069 -1 0 1
9682 1 41.8717 37.7172 1.53712 -1 0 1
14863 2 45.1683 37.1416 0.12952 -1 0 1
12448 1 45.8556 36.9794 2.74192 0 -1 1
3788 2 44.1613 38.6058 1.77168 -1 0 0
6889 1 46.4206 39.0067 2.11147 0 0 0
2845 1 48.1461 37.3877 2.57219 0 0 0
3230 2 48.8311 39.3946 1.91688 0 0 0
7253 1 47.3491 37.7188 0.398388 0 -1 0
10824 2 50.417 37.4123 2.22222 0 0 1
3820 1 51.3033 39.3853 1.41069 0 0 0
8214 1 52.2294 37.8057 0.0689016 0 -1 1
2122 2 49.7373 37.9818 0.228497 -1 0 0
2055 2 52.7502 36.9006 2.55022 -1 -1 0
5094 2 53.7153 38.7629 1.69116 0 0 0
1861 1 2.04906 40.1445 0.875668 0 0 0
7865 1 1.09057 42.066 2.06234 0 0 0
6249 1 2.94717 42.8175 1.07168 1 -1 0
12900 1 3.20303 41.3112 2.76705 1 0 1
2186 2 4.78524 41.5286 0.980505 0 0 0
8610 2 6.36102 41.0915 2.66538 1 0 1
9316 2 8.38345 41.1775 1.23486 0 -1 1
361 1 10.6381 40.6077 2.15382 0 -1 0
14270 1 11.9292 41.6698 0.503758 1 0 1
5776 2 12.3933 42.5369 2.6431 0 0 0
15969 1 14.0636 41.2011 1.33588 0 0 1
16096 2 15.5557 40.3556 2.69546 0 0 1
11351 2 17.2806 42.0348 2.81125 0 -1 1
2386 2 16.1501 41.1036 0.360666 0 0 0
5733 1 19.0539 41.8888 1.33305 0 0 1
8660 2 21.1962 41.2437 1.8079 0 0 1
13702 1 23.212 41.5399 0.671442 0 -1 1
13075 2 23.4553 42.752 2.58273 0 0 0
841 2 23.2345 40.3971 2.8861 0 0 0
2976 1 25.201 40.9194 1.67353 0 0 0
15140 2 27.0171 41.3402 0.292106 0 0 1
2471 2 27.4837 40.9678 2.5838 0 0 0
7268 1 25.8715 42.7266 3.00814 0 0 0
2882 2 29.35 41.8272 1.70598 0 0 0
13964 1 30.5335 40.4395 0.175749 -1 0 1
2125 2 31.8602 40.7222 2.13284 0 -1 0
682 2 33.7283 42.0875 1.87622 0 0 1
5854 1 33.9531 39.8075 2.60296 0 0 0
11782 1 34.7877 39.9896 0.320838 0 0 0
7237 2 35.8726 41.4075 2.33699 0 -1 0
4043 2 36.4806 41.5958 0.183762 0 0 0
6457 2 38.4817 40.7684 1.68315 0 -1 0
159 2 37.772 42.9581 2.2545 0 -1 0
6941 2 40.1525 40.7787 0.00755192 0 0 0
2973 1 42.1916 39.8653 0.957861 0 0 0
11836 1 40.481 40.1701 2.54516 0 0 1
948 2 39.9764 42.4404 1.76573 0 0 0
7769 1 42.0269 41.8703 2.74129 0 0 0
15752 1 42.1993 42.2194 0.477222 -1 0 1
14185 2 44.2684 40.9008 1.74848 0 1 1
12409 2 45.049 42.7443 0.541837 0 -1 1
16345 1 45.775 42.3711 3.00445 -1 0 1
492 1 46.8366 41.077 1.31794 0 -1 0
12977 1 48.8456 42.0718 2.05897 0 0 1
13980 1 51.2595 42.0823 1.65325 -1 0 1
5066 1 50.3216 40.666 3.14289 -1 0 0
2684 2 50.015 40.6841 0.13149 0 0 1
1418 1 55.0083 40.4397 0.586691 -1 0 0
118 2 54.0776 42.4966 1.53036 0 -1 0
15223 2 52.8482 40.6936 2.76142 0 0 1
15594 2 52.6998 41.0728 0.181514 0 0 1
15427 1 1.57038 44.6149 1.07061 0 -1 1
52 1 2.66102 46.2173 2.67532 1 -1 0
459 1 4.3726 43.2583 2.70484 0 0 0
14381 1 3.76787 44.808 1.09709 1 -1 1
14550 1 5.73837 45.4748 0.307257 0 -1 1
703 1 5.21028 45.4409 2.83522 1 0 0
779 2 6.22455 43.6158 1.46417 0 0 0
5902 2 8.20024 43.6683 0.632387 0 0 0
6072 1 7.48239 45.7799 1.89152 1 0 0
8962 2 10.1266 43.0064 1.61415 0 0 0
404 1 9.76157 45.3806 0.73292 0 0 0
36 1 11.6548 44.6508 1.99616 1 -1 0
11336 2 9.40935 45.0624 2.96485 0 -1 1
6494 1 13.4383 43.5335 0.694519 0 0 0
3780 2 14.0782 44.5978 3.02284 0 0 0
832 1 13.3326 45.7314 1.19431 1 0 0
14432 1 15.5748 43.1762 1.75712 0 -1 0
5036 1 15.5494 45.5159 1.04143 0 0 0
3685 2 17.398 44.4075 2.13258 0 0 0
10688 1 17.4737 43.0468 0.146416 1 0 1
7114 2 19.3373 44.3555 0.693974 0 0 0
13896 1 19.9817 45.6395 2.80233 0 0 1
7763 1 19.4804 43.4628 2.97263 0 0 1
14446 2 21.4889 43.4369 1.38014 0 -1 1
858 2 21.4111 46.0729 1.14275 1 0 0
10301 1 23.4941 45.0199 1.64528 1 -1 1
8176 1 24.8508 43.1775 0.736309 0 0 1
5838 1 27.3319 43.3065 1.09767 0 0 0
6134 2 25.8133 44.7762 2.1798 0 0 0
7061 2 29.5572 44.2635 0.352464 0 0 0
3077 1 30.3331 44.4931 2.51748 0 -1 0
4196 1 28.2668 45.4684 2.06708 0 0 0
9954 2 31.434 42.9265 0.905318 0 0 1
3240 1 32.619 43.9458 2.8445 0 -1 0
804 1 33.3547 44.2912 0.642258 0 0 0
2027 1 35.5815 43.4335 1.38756 0 0 0
5729 2 35.2677 45.6211 0.385792 0 -1 0
4917 2 36.7357 44.6616 3.08065 0 0 0
3010 1 39.4306 44.8464 2.21425 -1 0 0
10028 1 37.7308 44.7781 0.853228 0 0 1
4211 2 41.5889 44.3142 1.86254 0 -1 0
1454 1 43.726 43.3893 2.34957 0 0 1
12782 2 45.8797 44.7434 2.56555 0 0 1
4059 1 43.4451 45.7858 2.08278 -1 0 0
5177 2 45.0934 45.1224 0.310186 0 -1 1
14016 1 43.0817 44.1964 0.0865734 0 0 1
4823 2 47.1619 43.4293 1.14984 0 0 0
16220 1 48.2579 45.3557 2.41329 -1 0 1
13550 2 47.6493 45.4881 0.214453 0 0 1
8420 1 49.6451 43.903 0.998217 0 -1 1
9629 2 51.9895 44.2648 1.02789 0 0 0
848 2 50.6937 45.8466 2.26603 -1 0 0
4672 2 54.4554 44.7647 0.849044 0 0 1
13318 1 0.718818 48.3446 1.89166 0 -1 1
14061 1 2.00232 46.8261 0.603585 1 0 1
9924 1 0.319534 46.1389 2.51779 0 0 1
12939 1 3.43614 48.4248 2.89565 0 0 1
1588 2 4.22079 47.0698 1.07091 0 0 0
6168 2 5.89339 47.7018 2.70374 0 -1 0
10017 2 6.38345 47.8877 0.500501 0 0 0
4086 2 7.77359 48.8646 2.35552 1 0 0
11335 2 9.08132 47.6079 1.06322 0 -1 1
9609 2 11.2544 46.9231 2.06426 -1 -1 0
14511 2 12.6437 48.331 0.942231 1 -1 1
11941 1 14.5247 47.2479 2.23239 0 0 1
13667 2 18.086 46.6431 1.65766 0 -1 0