ITEM: TIMESTEP
420000
ITEM: NUMBER OF ATOMS
16384
ITEM: BOX BOUNDS pp pp pp
0.0000000000000000e+00 5.5200000000000003e+01
0.0000000000000000e+00 5.5200000000000003e+01
0.0000000000000000e+00 5.5200000000000003e+01
ITEM: ATOMS id type x y z ix iy iz
15145 2 1.70002 1.62739 2.64175 1 1 1
1148 1 1.50081 2.10463 0.0643527 1 0 0
931 1 3.6878 0.743494 1.51447 0 1 0
4369 2 5.62033 1.39561 2.56156 0 0 0
16216 1 5.25015 1.90995 0.134286 0 1 1
6903 1 3.17432 2.98747 1.26532 1 1 0
16006 2 7.58806 0.339542 1.43144 0 1 1
11364 1 7.28278 2.60185 1.3533 1 0 1
4779 2 9.20492 1.68939 0.267262 0 1 0
13600 1 9.56999 0.453311 2.56621 0 0 1
10105 1 11.3482 1.09106 1.11127 0 1 1
14853 2 9.37998 2.89574 2.33508 0 1 1
15767 2 13.4295 0.712013 2.27455 0 0 1
4763 2 15.2659 1.1733 1.04854 0 0 0
12750 2 13.2725 3.03947 1.88976 0 0 1
538 1 15.4428 2.52724 2.87097 0 0 0
5720 1 17.2386 0.600688 2.07968 0 1 0
2490 2 17.0998 2.98976 1.47617 0 0 0
9357 1 18.767 1.18568 0.470984 0 0 0
15324 2 20.8719 0.659914 1.49809 0 1 1
11757 2 19.1651 2.345 2.45711 0 0 1
12700 1 20.8467 2.99469 1.06359 0 0 1
200 1 22.9647 2.30971 1.81393 0 0 0
4206 2 23.1749 0.124128 2.26514 0 0 0
10535 1 22.5251 0.933168 -0.0205438 0 0 1
15677 1 24.7227 2.42697 0.225543 0 0 1
14831 2 25.1558 1.71204 2.63425 0 0 1
12253 1 26.9252 1.45958 0.965497 1 1 1
4972 2 24.8668 0.190801 0.714758 0 1 0
4991 2 29.2651 0.771962 0.972923 0 1 0
15945 2 28.9237 2.94857 1.1692 -1 0 1
1270 1 27.619 0.984865 3.03757 0 0 0
6250 1 31.0277 2.10525 2.10931 1 0 0
7399 2 33.2926 1.27752 2.63202 0 0 0
935 1 33.2475 1.38036 0.347757 0 1 0
4526 2 31.5343 0.0359486 1.22528 0 1 0
3387 2 35.3079 2.5171 2.33031 0 0 0
8174 2 35.2862 0.682609 0.832318 0 1 0
95 1 35.2247 2.64129 0.000334958 0 0 0
13698 1 39.3301 1.37665 1.90133 -1 0 1
14738 2 37.3825 1.9704 0.773803 0 1 1
13740 2 39.7856 3.05749 0.375195 0 0 1
8721 2 41.9686 2.22438 1.19685 0 1 0
10896 2 41.3864 0.334567 2.22352 -1 0 0
2787 2 40.5822 3.07733 2.87681 0 1 0
4861 1 44.0094 1.22362 2.01776 0 1 0
14390 1 46.0602 2.17444 1.676 0 0 1
15299 1 48.3848 2.31086 2.34697 -1 1 1
3817 2 47.2506 0.0726501 1.18493 0 1 0
11180 2 49.1386 0.740574 0.458317 0 1 1
4576 2 50.9591 0.58804 1.92562 -1 0 0
1599 2 50.3937 2.7657 1.1578 0 1 0
8228 2 54.9948 1.02037 1.4377 0 0 1
7984 1 52.8744 1.2341 0.522135 -1 1 1
6199 1 52.6566 2.81111 2.15409 0 0 0
2467 1 1.11128 3.9264 1.76285 0 0 0
11083 2 2.84434 5.2962 0.572523 0 1 1
3906 2 3.01233 4.82404 2.96486 0 1 0
2302 2 5.23421 3.60654 2.3354 1 0 0
5007 1 6.87931 4.93428 1.00668 0 0 0
13483 1 8.9293 5.32192 2.06311 1 0 1
3327 1 8.94651 4.02132 0.138503 1 0 1
3854 1 11.147 3.45823 0.939327 0 1 0
8417 1 10.7877 5.92738 0.776941 1 0 0
3672 1 12.9368 5.34104 1.54468 0 0 0
11582 2 15.0618 4.63259 2.43986 1 0 0
13273 2 15.0616 3.43949 0.331603 0 1 1
13446 1 14.6579 5.93747 0.209605 0 0 1
12123 2 16.7981 5.31547 0.981418 0 1 1
741 1 18.8298 4.7459 1.97127 0 1 0
5805 1 20.5752 5.26827 0.584464 1 0 0
15276 2 20.8175 4.41852 2.93389 0 1 1
11150 1 18.8374 3.4925 -0.00442464 0 1 1
11706 1 22.6149 4.61457 1.25366 1 0 1
1053 1 27.0378 3.30837 2.79778 0 0 0
3234 1 24.7567 3.95165 2.04615 0 0 0
8293 2 26.5386 5.45923 2.218 0 0 0
15923 2 26.6298 3.77347 0.523929 0 0 1
182 1 28.402 5.1853 0.599853 1 0 -1
2756 2 28.8862 4.72848 3.00644 -1 1 0
13511 2 30.6762 4.39425 0.964608 -1 0 1
15588 1 32.3478 5.74185 2.20568 0 0 1
15210 2 33.0574 3.38048 1.60975 0 1 1
9192 1 33.9929 5.24437 0.610647 0 1 1
3907 2 36.1424 4.30293 1.31048 -1 1 0
14989 1 34.4983 4.89114 2.94981 0 1 1
14915 1 38.4386 3.69854 2.11334 -1 1 1
1370 1 38.2355 5.71754 0.992034 0 0 0
3213 2 40.4444 5.185 1.66842 -1 0 0
4450 1 42.5043 4.22108 2.33192 0 0 0
12310 2 42.5932 6.11802 0.848365 0 0 0
11637 2 43.9346 3.22859 0.617575 0 0 1
11065 1 44.6667 5.28021 1.6804 0 1 1
15500 2 46.1653 4.10218 0.103957 -1 0 1
16299 2 46.9573 4.25658 2.47479 0 1 1
15239 2 48.32 3.89634 0.603788 -1 1 1
7033 1 46.8344 6.15411 1.05632 0 1 0
11617 1 51.6554 5.00583 1.41992 0 0 1
9452 2 49.5747 4.46174 2.87003 -1 0 0
574 2 54.3938 3.15363 0.55435 0 1 0
9823 2 53.9737 4.93934 2.21953 -1 1 1
1958 1 0.546993 6.13578 1.15982 1 1 0
4274 2 2.28774 7.12365 2.54116 1 0 0
10240 1 0.159778 8.03757 2.61614 1 1 1
7359 2 4.73728 5.95349 1.753 1 0 0
5849 2 4.12865 8.27426 1.27773 0 1 0
8232 2 5.89318 8.55997 2.80589 1 0 0
2254 1 6.30367 7.22572 0.624877 0 0 0
14311 1 8.34851 7.47096 1.72427 1 1 1
16284 2 6.71405 6.4202 2.91721 0 1 0
15036 2 10.1843 8.05669 0.425681 1 1 1
4865 2 10.4251 6.98099 2.73744 0 1 0
14551 2 12.3122 7.6659 1.44002 0 0 1
7665 1 14.4346 7.19145 2.21111 0 0 1
1266 1 14.0288 8.30902 0.03737 0 0 0
16029 1 16.2043 7.69827 0.760862 0 1 1
13787 1 15.9821 9.01382 2.75511 0 0 1
11392 1 18.3333 7.19107 1.55452 1 0 1
14590 2 16.5673 6.64608 2.98148 1 0 1
5132 1 20.4585 6.6419 2.35122 0 0 1
11634 2 19.9901 8.90981 1.98813 0 0 1
1637 1 20.1805 7.58029 0.168305 0 0 0
7462 2 22.3141 6.90565 0.881004 0 0 0
49 1 23.9756 8.5992 1.21507 0 0 0
1167 1 22.1548 8.42378 2.78706 0 0 0
4146 2 24.4225 6.23023 1.63294 0 0 1
496 1 21.8191 9.22794 0.495421 0 0 0
5647 2 26.1818 7.82853 1.75022 0 0 0
3282 2 28.2568 6.96154 2.73955 0 0 0
4864 1 30.2338 6.69072 1.39441 0 1 0
1551 1 28.167 7.64273 0.465567 0 0 0
1139 2 30.1588 8.81014 0.610285 0 0 0
9785 1 27.8779 9.38113 2.30045 0 0 0
1887 2 30.0289 8.31267 2.97583 0 1 0
4691 1 32.3831 8.0031 1.23161 0 0 0
13065 2 34.4163 7.13611 1.93341 0 0 1
719 2 36.5392 6.33807 2.68819 -1 0 0
535 2 36.0135 6.3682 0.148907 0 0 0
14427 1 34.5705 9.08304 0.77969 0 0 1
11255 1 36.6748 8.33196 1.36024 0 1 1
6945 2 38.956 7.51052 2.20338 -1 0 0
2538 2 40.3681 7.04674 0.214892 0 1 0
9399 1 41.3076 8.82606 1.32756 0 0 0
14791 1 41.3768 6.91791 2.62848 -1 1 1
5457 2 43.5026 7.98374 2.12422 0 0 0
5455 1 44.774 7.19843 0.345014 -1 0 0
6659 2 45.6648 7.24278 2.7588 -1 0 0
12208 1 45.931 9.08368 1.22135 0 1 1
2142 1 48.1664 8.19206 1.72989 -1 0 0
4918 2 49.3953 6.18797 1.26682 0 1 0
16322 1 50.6551 8.48546 2.08118 -1 1 1
5187 2 51.352 6.95267 0.0882309 -1 1 1
4457 2 50.9189 6.62858 3.12962 -1 0 0
5648 2 49.4853 8.44082 -0.0755384 -1 0 0
10758 2 55.1711 8.25854 0.347117 -1 1 1
3334 2 53.225 6.99945 1.33252 -1 0 0
14072 1 53.159 8.92682 2.50346 0 1 1
374 1 52.2859 9.07452 0.440899 0 0 0
5310 1 1.9447 9.24832 1.47358 1 0 0
1896 2 1.56914 11.401 0.48182 0 0 0
8536 1 2.80762 11.2414 2.47017 0 0 0
16307 1 0.537493 12.3021 2.66293 1 1 1
343 2 5.23997 10.479 1.96581 0 0 0
1344 2 3.6227 10.5023 0.316334 1 0 0
14210 2 7.54072 9.59413 1.56073 0 1 1
15768 1 8.80325 11.5839 2.49832 0 1 1
15955 1 7.16574 11.77 0.690386 1 0 1
13607 2 9.21828 10.4281 0.359541 0 0 1
15148 1 9.75349 9.28337 2.53405 0 1 1
993 1 11.5431 10.0592 1.27239 0 1 0
10600 2 13.6706 9.49496 2.02459 0 0 0
9228 1 12.8873 11.8129 1.94471 0 0 1
4436 1 15.0785 11.2084 2.634 0 0 0
1009 2 15.5531 10.0911 0.60831 0 1 0
4447 1 17.7801 9.49114 1.31769 0 0 0
14454 2 17.0235 11.8866 1.16771 1 0 1
5593 1 19.2574 11.2901 1.83211 0 0 0
4572 2 21.1708 11.7126 -0.0375629 0 0 0
7603 2 21.5306 10.6909 2.29562 0 0 0
9353 2 23.4824 10.8432 0.774363 0 0 0
4266 1 25.8302 10.1266 1.43404 0 0 0
2510 2 27.3176 11.8394 1.35029 0 0 0
6771 1 29.6149 10.7566 1.85089 0 0 0
5351 2 28.0186 10.0765 0.131961 0 0 0
9486 1 31.6517 9.83846 2.46565 0 0 0
10464 1 31.5941 11.9079 1.3128 0 0 0
2292 2 32.5729 10.0081 0.160411 0 0 0
14442 1 33.7343 11.2124 1.7925 0 0 1
2607 2 35.9116 10.4831 2.30285 0 0 0
7360 2 36.9221 10.2293 0.109982 0 0 0
14320 2 39.1262 9.41353 0.679191 0 1 1
950 2 38.0901 11.6769 1.57091 0 1 0
9869 1 38.0702 9.64519 2.82657 -1 0 1
6314 1 40.2806 11.0753 2.04385 0 0 0
1589 2 42.5276 10.3996 2.57837 0 0 0
8527 1 41.4341 10.7165 0.0592594 -1 0 1
6988 2 43.7228 9.85285 0.757845 -1 0 0
11811 1 44.5193 11.7773 1.92537 0 0 1
15399 2 46.694 10.9444 2.42954 0 0 1
10487 2 47.9355 10.1656 0.549414 0 0 1
1715 1 48.9487 10.1105 2.86748 0 0 0
4869 2 48.5307 12.178 1.68435 -1 1 0
8632 1 50.388 10.5588 0.971804 0 0 1
2084 2 55.031 10.2092 1.62594 0 0 0
15925 1 52.8544 11.1007 1.38821 0 0 1
7515 2 2.29953 13.5422 1.5343 1 0 1
11889 1 4.53844 12.5404 1.28223 0 0 0
11755 1 4.71587 14.4086 2.65588 0 0 1
8551 2 4.17826 14.8183 0.436797 0 0 1
5184 1 6.20006 13.7277 0.192853 1 0 1
4233 2 6.60094 13.0393 2.5709 0 0 0
13574 1 8.51611 13.6633 1.37495 0 0 1
4787 2 10.5234 12.3355 1.15431 0 0 0
5316 2 12.126 14.2788 1.96282 0 0 0
6369 1 10.459 14.2966 0.00953829 1 0 0
922 2 14.2773 13.8382 2.73234 0 1 0
10777 2 14.8618 12.5894 0.607466 0 0 1
11976 1 14.1059 14.9897 0.525969 0 0 1
3346 1 16.1798 14.339 1.3694 0 0 0
1130 1 18.4143 13.5709 2.00505 0 0 0
10732 2 20.8763 13.0744 1.94137 0 0 1
13535 1 18.2932 14.8499 0.120532 -1 0 1
15217 2 19.0323 12.2744 -0.193084 0 1 1
15400 2 23.2316 12.3932 2.64452 0 0 1
12325 1 23.9413 14.5284 2.01413 0 -1 1
1999 1 22.9695 13.1958 0.367584 0 0 0
14153 1 21.8355 15.0769 1.35191 0 0 1
2054 1 25.0485 12.5219 1.08006 0 0 0
15086 2 26.0935 13.8818 2.56409 0 0 1
814 2 27.4677 14.1411 0.720833 0 0 0
13339 1 29.412 12.9762 0.875568 0 -1 1
12252 2 30.1567 14.7841 2.64769 0 1 1
15082 1 28.3173 13.3666 2.99853 0 1 1
14197 1 32.3079 13.8919 2.74392 0 1 1
2266 1 31.406 14.2319 0.372951 0 0 0
7679 2 33.6512 13.3892 0.860843 0 0 0
6204 2 35.8862 12.5588 1.13084 0 0 0
3872 2 36.404 14.4786 2.53772 0 0 0
6886 1 35.6541 14.694 0.26855 0 0 0
5272 1 34.2283 15.2234 2.26043 0 0 0
11207 2 37.8339 13.8971 0.659491 -1 1 1
12650 2 38.6995 13.5918 2.94668 1 0 1
12726 2 42.2553 12.4613 1.481 0 0 0
9303 1 40.092 13.2008 1.00519 -1 0 1
2781 2 41.9728 14.5876 0.372111 0 1 0
2917 1 40.6467 15.1341 2.26314 0 1 0
11493 2 42.8261 14.4176 2.78991 0 0 0
1503 1 44.1678 13.8765 0.805204 0 0 0
14474 2 46.1282 15.2391 0.111169 -1 0 1
794 2 46.4431 13.0187 1.19695 -1 1 0
15582 1 48.2642 14.4583 0.554833 -1 0 1
5350 2 47.0556 15.0889 2.52872 0 0 0
7857 1 49.2351 14.1056 2.73241 0 0 0
9375 2 50.9508 12.572 2.07693 0 -1 0
7529 1 50.6117 14.9819 1.03185 0 0 0
15530 2 55.2308 14.4513 1.57668 0 0 1
12353 1 54.6438 12.3372 0.474 -1 0 1
3472 2 52.3512 13.3618 0.446673 -1 0 0
14219 2 53.3551 13.1938 2.50834 -1 1 1
2111 1 2.71541 15.7218 2.58859 1 0 1
13424 2 0.478549 16.3805 2.601 0 0 1
7752 1 1.77472 15.6789 0.496464 0 0 0
2262 1 2.08503 17.7621 1.4567 0 0 0
10574 2 4.44848 17.0237 1.41729 0 0 1
15900 1 6.35818 15.5609 1.52398 0 0 1
3574 2 6.31604 17.9791 1.77684 1 0 0
264 2 8.13415 16.749 1.66148 0 0 0
12612 1 10.0855 15.4205 1.98307 0 0 1
3550 2 11.4639 17.197 2.57244 0 0 0
14527 2 11.8986 16.084 0.449099 1 0 1
8948 2 9.87967 17.3914 0.476626 0 0 0
7532 2 13.5513 16.123 2.58112 0 0 1
8655 1 13.8971 17.4059 0.454966 0 0 0
7556 2 15.7471 16.7567 1.56342 0 0 1
6972 1 17.7411 15.8317 2.43446 1 0 1
9876 1 17.9252 17.2207 0.53307 0 0 0
10598 1 17.5035 18.2221 2.6018 0 0 1
13346 2 19.8278 16.3792 1.31482 0 0 1
12624 2 21.7473 17.1327 2.69765 0 0 1
13142 1 23.5489 16.3722 0.562212 0 1 1
5305 2 23.9302 18.2702 1.93424 0 0 0
15953 1 21.895 18.3164 0.75096 0 0 1
10815 1 25.6843 16.1037 1.68934 0 0 1
1675 2 27.7808 17.9261 1.38687 0 1 0
12918 1 29.5552 15.5991 0.610095 0 0 1
3706 1 27.894 15.6837 2.34406 0 0 0
12872 2 29.9619 17.2999 2.06073 0 0 1
2201 2 32.0374 16.0065 1.78862 0 0 0
12595 1 31.6678 17.6869 0.390721 1 0 1
11605 1 33.8502 17.4596 1.32652 -1 0 1
7584 1 36.0178 16.5897 1.62632 0 0 0
1969 1 36.5881 18.5747 2.87593 0 0 0
15280 2 38.3319 15.836 2.00865 0 1 1
9821 2 37.8513 18.124 0.969324 0 0 0
14917 2 40.2105 17.4665 1.31968 -1 0 1
11370 1 42.4286 16.6171 1.64705 0 0 1
6260 1 44.7723 15.7967 2.11751 0 0 0
1398 1 44.2851 18.0448 1.07512 0 0 0
3411 2 46.6165 17.1601 1.47528 -1 1 0
10587 1 48.8738 16.4066 1.72135 -1 0 1
6458 2 51.1489 16.9074 2.25441 0 0 1
8307 1 50.3284 17.2192 0.084493 0 0 0
8927 1 52.8912 15.3518 1.39495 0 0 1
2164 1 54.7933 16.6037 0.515553 0 0 0
9183 1 53.5074 17.4155 2.52139 -1 1 0
213 2 52.6073 17.703 0.519443 -1 0 0
14583 2 2.20828 19.9036 2.19742 1 0 1
1146 1 1.38978 19.9538 0.041251 1 0 0
2388 1 4.52965 19.416 1.99752 0 0 0
6366 1 3.64739 21.0548 0.68205 0 0 0
10360 2 5.89417 20.7084 0.504865 1 -1 0
15992 1 6.87953 20.2164 2.70619 0 0 1
8181 2 7.92614 19.0736 0.802427 0 0 1
16235 1 9.05549 21.0915 2.40223 0 0 1
15898 1 9.39514 18.6551 2.54636 0 0 1
12433 1 11.869 18.4714 0.631976 0 0 1
15556 2 10.1596 20.051 0.492452 0 0 1
10951 1 11.4387 19.608 2.48562 0 0 0
15316 1 13.5159 18.5777 2.41968 0 1 1
8722 2 13.37 20.3957 0.806308 0 0 0
3222 2 15.5518 19.114 1.35985 0 0 0
3311 1 17.0136 20.6973 2.64782 0 0 0
13663 2 18.0158 19.4932 0.7533 0 0 1
5611 2 19.9249 18.7037 1.99342 1 0 0
13845 2 19.9792 21.0782 2.17276 0 0 1
1491 2 22.0433 19.7491 2.97353 0 0 0
5505 1 21.8888 20.6706 0.788943 -1 0 0
8528 2 24.052 20.7557 1.93714 0 0 1
2319 1 23.7692 19.4227 -0.0259764 0 0 0
4331 2 25.9955 19.5061 1.82291 0 0 0
13890 2 27.8378 20.2919 0.711494 -1 0 1
12284 1 29.9681 19.2481 0.928739 0 1 1
9654 2 28.3035 19.6191 2.84844 0 0 1
9978 1 30.2895 21.0221 2.58918 0 0 0
10898 2 32.11 19.5344 2.03713 0 0 1
549 1 33.6363 21.1798 1.32325 0 0 0
16182 2 34.3472 19.2765 2.61817 0 0 0
14393 2 36.1426 20.7409 1.73179 0 0 1
3643 2 35.6497 18.7937 0.557942 0 0 0
4020 1 38.4577 20.0687 2.18288 0 1 0
11701 1 39.7393 19.6507 0.241492 0 0 1
2412 2 42.0321 18.8428 0.54571 0 0 0
5879 1 40.7393 19.3634 2.57261 0 0 1
3692 2 42.573 20.8293 1.95899 0 0 0
11476 2 43.015 18.5526 3.08961 -1 0 1
13944 2 44.7642 20.0057 2.3442 0 1 1
3766 2 43.7431 20.2211 -0.00351884 0 0 0
399 1 48.5072 18.5287 0.749258 -1 0 0
477 2 46.2103 19.403 0.330534 0 0 0
2561 2 47.0922 19.2038 2.68464 -1 0 0
1705 2 46.5544 21.2725 1.77187 0 1 0
3760 2 48.9801 20.5126 2.09092 0 0 0
1605 1 50.7077 19.2413 1.18954 -1 0 0
6413 2 51.107 21.4048 2.40389 -1 0 1
3782 1 55.2857 21.0945 2.6071 0 0 0
10278 2 55.2002 18.8333 1.54656 0 0 1
8884 2 52.897 20.0605 1.72566 -1 0 0
3890 1 54.5834 21.0481 0.378544 0 1 0
3408 2 1.49046 22.0723 0.890971 0 0 0
1003 2 1.65796 24.4829 1.66357 1 1 0
1558 1 0.36014 23.2526 3.17024 1 0 0
11096 2 4.95339 21.7697 2.69606 0 0 1
4145 2 3.57481 23.2258 1.05332 1 0 0
15151 1 5.30535 24.2222 2.42726 0 0 1
16054 1 5.95066 23.0613 0.490728 1 1 1
11385 2 8.05332 21.6312 0.440207 1 0 1
5386 2 7.20403 22.6117 2.42484 0 -1 0
15619 1 8.0088 24.0459 0.566319 0 0 1
6395 1 9.48366 23.4794 2.11435 1 0 1
13488 2 11.2258 21.8374 1.74582 1 0 1
3755 2 11.6294 24.0363 0.860166 1 0 1
47 1 13.504 22.5533 1.35086 1 0 0
13793 2 15.1931 24.2314 1.82639 0 0 1
4661 1 18.005 21.8477 0.571274 0 0 0
13540 2 15.5766 21.8703 1.15297 0 -1 1
16274 1 17.1522 24.0845 0.485202 0 0 1
2426 2 17.0224 23.1061 2.67907 1 0 0
12905 2 19.0968 23.6663 1.89454 0 0 1
5411 2 20.5532 22.7376 0.227518 0 0 0
1679 1 21.2816 24.4436 1.82825 0 0 0
11779 1 22.6095 22.5412 1.87129 -1 0 0
3295 1 22.7236 23.8856 0.0438386 0 0 0
10179 2 24.5459 24.1153 1.39418 0 1 0
410 1 26.0926 22.0521 1.18192 0 0 0
669 2 26.514 23.7317 2.73885 0 0 0
6940 1 27.8468 23.698 0.774173 -1 0 1
930 1 28.1111 21.9527 2.27659 0 1 0
13282 2 29.7975 23.5986 2.14861 0 0 1
58 1 29.642 21.797 0.441149 0 -1 0
740 1 31.6823 22.5461 1.36734 0 0 0
8120 2 33.4357 24.1573 0.601222 1 1 1
12086 2 32.0447 24.3951 2.84514 0 0 1
12027 1 35.4145 22.6752 0.608892 0 0 1
7667 2 34.0513 23.1096 2.61536 0 0 1
14084 1 36.4092 22.5915 3.05639 -1 1 1
12140 2 37.9067 22.2106 1.02675 0 1 1
13162 1 39.7057 23.6977 0.571568 0 1 1
14790 2 38.112 24.2321 2.13959 -1 1 1
9431 2 40.1676 21.5276 1.65215 0 0 1
12406 1 40.5761 23.3302 2.84902 0 0 1
11166 2 42.013 23.0235 1.11027 0 0 1
14297 1 44.2981 22.2142 1.42991 0 1 0
10019 2 44.7542 24.0704 2.86557 0 1 1
7601 2 43.7361 24.4295 0.578975 0 0 0
10455 2 46.1638 23.504 0.952191 -1 0 1
11249 1 48.359 22.5252 1.30076 0 1 1
4000 2 50.4833 23.5847 1.16936 -1 0 0
7820 1 53.3301 22.2266 2.81432 -1 0 0
15205 2 54.6092 23.1715 1.00334 0 1 1
15762 2 52.4125 22.2288 0.46815 -1 0 1
9608 1 52.6897 24.2029 1.47601 -1 0 1
4766 1 1.22498 26.8381 1.77929 0 0 0
449 2 3.55988 25.607 1.47705 0 0 0
2733 1 5.42415 26.7797 2.47657 1 0 0
12883 2 6.0497 25.5024 0.646388 0 0 1
3648 2 7.48176 25.0888 2.75749 1 0 0
4774 2 9.41019 25.843 1.40678 0 0 0
14945 2 11.341 25.5507 2.51808 0 0 1
10128 1 11.3769 26.4487 0.260688 0 0 1
8318 2 12.0802 27.6382 2.10475 1 -1 0
10462 1 13.3826 25.7412 1.34473 0 0 1
16226 1 15.3808 26.3363 2.66537 0 0 1
12428 1 17.4484 25.4582 2.25978 0 0 1
7262 2 15.9128 26.0674 0.270833 0 -1 0
9023 1 18.1975 26.922 0.36472 1 0 1
2595 1 19.6187 26.0907 1.95656 0 0 0
10187 2 21.5436 27.4134 1.75152 0 1 1
12209 1 23.2089 25.867 1.85958 0 0 1
3417 2 24.6681 27.5009 1.4093 0 0 0
356 2 26.3381 25.7441 1.12377 0 0 0
5980 2 29.0887 25.5557 1.59989 0 0 0
9189 1 30.4031 27.1303 0.200468 0 0 1
6703 2 31.1689 24.897 0.564678 0 0 1
15134 2 31.105 26.541 2.29092 0 0 1
9798 1 33.5705 26.106 1.74623 -1 0 1
14267 1 35.5227 24.6949 1.77178 0 1 1
1324 2 35.5842 26.933 2.87396 0 0 0
12760 1 34.8041 27.5112 0.343759 0 0 1
1721 2 36.8656 26.3813 0.893138 0 0 0
14483 2 37.9806 26.4694 2.95892 -1 0 1
12844 2 39.1701 27.6371 1.08493 0 0 1
2549 1 40.1421 25.5192 2.01671 0 0 0
2071 1 42.4318 24.914 2.67173 0 0 0
8268 2 41.8945 26.9902 1.90008 -1 0 0
9950 1 41.483 25.2206 0.167969 0 0 1
15899 1 44.239 26.3158 2.1546 0 0 1
12453 1 45.7301 25.7303 0.378786 0 0 1
8435 1 48.1148 24.7359 0.612575 0 0 0
14316 2 46.5477 25.4826 2.53689 0 0 1
9878 1 47.4653 26.9859 1.14627 0 1 0
12163 2 48.9909 24.8668 2.88831 -1 0 1
4997 2 50.6466 25.8324 1.40585 -1 0 0
10816 2 52.5424 26.2445 2.57227 0 0 1
5569 1 54.6308 25.388 2.07138 -1 0 0
11971 2 53.349 26.2565 0.230402 -1 0 1
16376 2 0.78398 29.2043 1.56633 1 0 1
12661 2 2.90768 30.2688 1.56971 1 -1 1
2261 1 3.22 27.8599 1.51921 0 0 0
5450 2 4.92845 29.2103 2.22971 0 0 0
13649 1 6.05502 28.0116 0.470966 0 0 0
6283 1 7.61104 27.535 1.80232 0 0 0
4622 2 6.88549 29.9383 1.1617 0 0 0
14020 2 8.7397 29.7671 2.36844 0 0 1
2750 2 9.3114 30.6615 0.0638041 1 1 0
5890 1 9.87757 28.1072 0.962468 0 0 0
599 1 11.2972 30.089 1.08783 0 0 0
1783 2 14.6147 27.9075 0.909013 1 0 1
14937 2 13.3341 29.7025 2.19108 0 0 1
7715 1 15.5 30.0615 1.0462 0 0 0
5010 2 17.0725 27.9677 2.06256 0 0 0
10878 1 17.7333 29.9834 1.52106 1 0 1
4051 1 19.3976 28.3502 1.83225 0 1 0
15543 1 21.1115 29.2762 0.347313 1 0 1
6239 2 23.0659 29.2117 1.5556 0 0 1
13447 1 26.6129 27.6588 2.96743 0 0 1
15460 2 26.456 29.3863 1.35084 0 0 1
15256 1 28.1713 27.6422 1.25817 0 0 1
1913 1 28.6742 29.7597 0.523871 0 0 0
4472 1 30.3343 28.7583 1.87516 0 0 0
640 1 28.1245 29.4976 2.88913 0 0 0
15921 1 32.5837 28.128 1.00871 0 0 1
1710 2 32.3763 29.8616 2.58825 0 0 0
1830 1 32.9023 30.502 0.358249 0 0 0
6610 2 34.7306 29.1078 1.9765 -1 0 0
314 1 36.5842 30.5168 2.8886 0 0 0
12860 1 37.135 28.4938 1.83634 0 0 1
11102 2 38.8159 29.7576 2.61756 0 1 0
8578 2 39.007 29.7065 0.342583 -1 0 0
8922 2 37.0891 30.6444 0.63611 0 0 1
15188 1 40.8676 29.0685 1.77466 0 1 1
7120 1 42.7658 30.3495 2.26169 0 1 0
12004 2 43.0429 28.8472 0.689437 0 0 1
13577 2 45.0473 30.0483 1.99555 -1 0 1
8088 1 45.2793 28.0627 0.766557 0 0 0
15098 2 43.7959 28.3474 3.07468 0 0 1
8916 2 47.2494 29.2975 0.771439 0 1 0
15964 2 46.0904 27.9676 2.89342 -1 0 1
2710 2 48.1219 29.3727 2.84912 0 0 0
5873 1 49.3121 30.3056 0.784039 0 0 0
9926 2 49.5632 27.9368 1.23913 -1 0 0
12659 2 51.8846 28.504 1.56884 0 0 1
334 2 54.2173 27.7204 2.04882 -1 0 0
14045 1 53.6731 30.2479 1.36074 -1 0 1
4471 1 1.25452 31.7547 1.16213 1 0 0
7167 2 3.67105 32.3863 1.75351 1 0 0
11989 1 5.76496 31.6435 2.64672 0 0 1
3013 1 5.3607 31.7448 0.263425 0 0 0
15696 1 4.65175 33.8919 0.392853 0 0 1
1786 2 6.38314 33.7254 2.04742 1 0 0
1852 2 7.90714 32.1063 1.39241 1 0 0
6266 1 9.9733 32.8184 0.256685 1 -1 0
15549 1 10.0714 31.8363 2.38278 1 -1 1
8201 1 12.2388 32.3038 1.05516 0 -1 1
12414 2 14.3574 31.844 2.02194 1 -1 1
1904 2 16.4126 32.0356 2.40072 0 0 0
12784 2 16.3039 32.1062 0.22989 0 0 1
4668 2 20.339 30.8047 2.03556 0 0 0
5797 1 18.5655 31.8868 1.03869 0 0 0
6741 2 20.8158 33.0502 0.767297 0 0 0
14108 2 19.3962 33.2894 2.72841 0 0 1
15753 1 21.7744 32.6689 2.70007 0 -1 1
15544 2 22.4187 31.4045 0.649056 1 0 1
16188 2 24.3845 32.7504 2.97316 0 0 1
16108 1 24.6249 30.9625 1.45812 0 0 1
10161 1 24.942 33.0813 0.509787 0 0 0
9805 2 26.5922 31.4636 0.494824 0 0 1
1401 1 26.5784 33.3581 2.24144 0 0 0
9218 1 26.2561 31.1435 3.04958 -1 -1 0
4712 2 28.4546 31.6695 2.12938 0 0 0
10163 2 30.6248 31.1112 1.40438 0 0 1
6563 1 30.3616 32.8374 2.95843 0 0 0
16232 1 31.1075 33.3766 0.656357 0 0 1
9273 1 32.7426 32.1131 2.01101 0 0 1
15663 1 34.9876 31.4881 1.28196 0 -1 1
15666 1 34.6052 33.3655 2.77909 0 0 1
16052 1 35.2864 33.846 0.396783 0 0 1
11968 2 37.0211 32.7081 2.00944 0 0 1
8589 1 39.2187 31.8384 1.3849 -1 0 0
6719 1 41.2089 30.756 0.346955 0 0 0
3596 2 41.2203 33.0588 2.17323 -1 0 0
6865 2 40.7528 30.9673 3.09132 -1 0 0
14119 1 43.3952 32.5534 1.73159 0 0 1
10788 1 45.5409 32.2497 0.988503 -1 0 1
12219 2 43.4487 30.9191 -0.0237762 0 0 1
959 2 47.2888 31.4887 2.44357 0 1 0
447 1 47.4807 31.6865 0.055774 0 0 0
3958 2 47.9383 33.5715 1.69092 0 0 0
11016 1 51.5293 31.0921 1.11652 -1 0 0
2539 1 49.8507 31.3647 2.8167 -1 0 0
3865 2 49.5272 32.5577 0.130574 -1 0 1
6566 2 50.4338 33.4707 1.96222 0 0 0
12852 2 51.9326 33.1938 0.0265011 0 0 1
14035 1 54.2115 32.3415 0.543719 -1 0 1
6690 1 52.7243 32.6239 2.35388 -1 0 0
16212 2 54.9525 31.9063 2.93593 -1 1 1
8989 1 2.21841 33.8933 0.0991138 0 0 1
16335 2 0.450594 33.8913 1.75983 1 0 1
5043 2 1.12236 36.1456 0.639668 1 0 1
15681 1 2.85892 34.4994 2.19583 0 0 1
9706 2 2.03193 36.4477 2.62474 1 -1 0
11933 1 4.95372 35.5557 2.50291 0 0 0
4239 1 3.70426 36.0411 0.63097 0 -1 0
7561 2 6.54039 35.6013 0.492951 0 0 0
10310 2 8.67693 34.6033 1.00557 0 0 1
4201 1 7.22341 35.6911 2.85663 1 -1 0
7327 2 10.8162 34.226 2.1761 0 0 1
15799 2 9.67227 36.114 2.84261 1 0 1
15233 2 10.8901 35.3978 0.179142 0 0 1
7137 1 11.7994 36.4615 2.13703 1 0 0
7015 1 13.0018 34.7922 1.05934 0 0 0
12530 1 14.8058 36.451 1.06075 1 0 1
5549 2 15.2005 34.1394 1.84509 0 0 0
9946 2 13.9152 35.5319 3.13143 0 0 0
5370 1 17.6519 33.9412 0.931132 1 -1 0
11844 2 17.2086 36.1722 0.802706 0 0 1
1810 1 18.8936 35.5585 2.35809 0 0 0
12039 1 21.0717 34.9819 2.15943 0 0 1
7711 1 19.5701 35.2217 0.28986 0 0 1
12494 1 22.9949 33.8845 1.31324 0 -1 0
15508 2 23.0635 36.5839 1.76077 0 -1 1
14658 2 24.8577 35.1103 2.3498 -1 0 1
11915 2 26.9269 35.6453 1.4117 -1 0 1
14828 1 28.8979 33.8752 1.38131 0 0 1
13935 2 29.1117 35.9204 0.390557 0 0 1
5293 1 28.7012 35.4871 2.92255 0 -1 1
13268 2 30.8983 35.3653 2.17435 0 0 0
14769 1 33.0834 34.5243 1.37506 0 -1 1
5059 1 31.3448 35.5636 0.0410859 0 0 0
11888 1 32.7606 36.7795 1.61091 0 0 0
9270 2 35.0843 35.6589 1.81471 0 -1 0
7354 2 37.508 34.7336 1.06343 0 0 0
15781 1 39.3471 36.2759 1.93902 0 0 1
6448 1 39.06 34.0269 2.75901 0 0 0
2578 1 36.9706 36.8564 2.00165 0 0 0
4244 1 39.941 34.0679 0.619669 -1 -1 0
13875 2 41.4956 35.4896 1.52201 1 0 1
9136 2 45.4409 34.2484 2.38991 0 0 0
5883 1 43.2819 34.5115 0.568874 0 0 1
10864 2 44.0685 36.1362 1.82541 0 0 0
15526 2 43.0819 34.421 3.22818 0 0 1
1802 2 46.6793 35.6934 1.08131 -1 0 0
3731 1 48.962 35.7708 0.87166 -1 0 0
15155 2 51.233 35.5444 1.13941 0 0 1
10229 1 53.4466 34.6209 1.44516 0 0 0
13871 1 54.8341 36.0693 2.71415 0 0 1
4336 1 2.63951 38.0724 0.864028 1 -1 0
2103 2 0.538982 38.2575 2.30763 2 -1 0
6704 2 5.53311 37.5249 1.23675 1 -1 0
899 1 4.3491 39.5774 1.77012 0 0 0
10389 2 3.87596 37.6644 2.819 1 -1 1
12869 1 8.02695 37.2086 1.39009 0 0 1
197 1 8.54019 39.4124 1.21788 0 0 0
10895 2 6.69925 39.0937 2.56427 0 0 1
3925 2 9.98098 38.4235 2.85218 0 0 0
13687 1 10.3638 37.7398 0.695467 1 0 1
15171 2 12.169 39.1096 1.66784 0 0 1
3079 2 14.349 38.0189 2.63745 0 -1 0
3858 1 14.6363 39.0101 0.514982 0 0 0
10279 1 12.8351 37.4068 0.333541 0 -1 1
6363 1 16.5511 38.193 1.6813 0 0 0
12754 2 18.9553 37.9403 0.886306 0 0 1
4659 1 20.9267 37.0916 1.45871 0 0 0
13962 1 20.156 39.1016 2.51128 0 0 1
2077 2 22.2822 38.9291 1.24766 0 -1 0
1712 1 24.3961 38.7518 2.41098 0 0 0
2157 2 24.3138 39.3255 0.0382048 1 -1 0
1639 1 25.1998 37.2074 0.761106 0 0 1
1070 1 26.4927 38.9912 1.34394 0 -1 1
8705 1 26.1535 37.3121 2.89025 0 0 1
6048 1 28.5689 39.3385 0.563804 0 0 0
11718 1 28.2988 37.5755 2.05724 0 0 1
2031 1 29.7062 39.4213 2.59117 0 0 0
15670 2 30.5323 37.7923 1.10185 0 -1 0
7449 2 32.6582 38.9531 0.58528 0 -1 0
12663 2 31.9657 38.4714 2.94939 0 0 0
16071 2 36.0593 39.0891 2.31802 -1 0 1
13099 2 34.8103 37.7853 0.792944 0 0 1
5854 1 33.8578 39.8521 2.52249 0 0 0
14248 2 37.1211 39.2813 0.432476 0 0 1
14908 2 39.6106 38.7056 1.00351 0 0 1
9682 1 41.9879 37.8617 1.56166 -1 0 1
3788 2 44.1886 38.5159 1.8763 -1 0 0
12448 1 45.9074 37.169 2.70158 0 -1 1
14863 2 45.1329 37.1259 0.104451 -1 0 1
4046 1 45.6202 39.5539 -0.0255069 -1 1 0
6889 1 46.41 39.2245 2.1425 0 0 0
2845 1 48.1671 37.2868 2.57648 0 0 0
3230 2 48.7077 39.4682 1.75856 0 0 0
7253 1 47.3213 37.8586 0.463798 0 -1 0
10824 2 50.4181 37.5369 2.22993 0 0 1
3820 1 51.3758 39.3241 1.12423 0 0 0
2122 2 49.6315 38.0594 0.0871917 -1 0 0
3214 1 54.1009 36.7142 0.509067 -1 0 0
8214 1 52.0732 37.4412 0.163596 0 -1 1
2055 2 52.6402 36.8789 2.51593 -1 -1 0
5094 2 53.6476 38.621 1.61161 0 0 0
1861 1 1.92423 40.3101 1.02856 0 0 0
7865 1 0.79286 41.9878 2.11813 0 0 0
6249 1 2.61209 42.6584 1.04852 1 -1 0
12900 1 3.23123 41.2862 2.73321 1 0 1
2883 2 6.2028 39.9342 0.452663 0 0 1
2186 2 4.78593 41.6982 0.80526 0 0 0
8610 2 5.97874 41.3164 3.12527 1 0 1
9316 2 8.087 41.5133 1.27649 0 -1 1
5773 2 7.95913 42.8412 3.23927 0 0 0
361 1 10.4268 40.7159 2.28978 0 -1 0
14270 1 11.7403 41.4715 0.609516 1 0 1
5776 2 12.3213 42.2951 2.73337 0 0 0
8962 2 10.0373 42.9918 1.55923 0 0 0
4438 2 10.3138 39.9515 -0.166175 0 0 1
15969 1 13.907 41.0461 1.43081 0 0 1
16096 2 15.6766 40.2464 2.57152 0 0 1
13122 2 17.9968 39.9761 1.57982 0 0 1
11351 2 17.2443 41.9055 2.76114 0 -1 1
2386 2 16.1413 40.9333 0.380816 0 0 0
8801 1 20.1592 40.1106 0.324134 0 0 0
5733 1 19.1199 41.9884 1.33089 0 0 1
8660 2 21.2139 41.2175 2.05941 0 0 1
13702 1 23.1717 41.4219 0.524629 0 -1 1
841 2 23.297 40.6077 2.8935 0 0 0
13075 2 23.5868 42.7911 2.44956 0 0 0
2976 1 25.2416 40.8847 1.57832 0 0 0
15140 2 26.9571 41.1819 0.18372 0 0 1
2471 2 27.5509 41.0065 2.42711 0 0 0
2882 2 29.3396 41.7745 1.36972 0 0 0
13964 1 30.5453 40.2671 0.0997331 -1 0 1
2125 2 31.6117 40.8946 1.9671 0 -1 0
682 2 33.7511 42.0898 1.73635 0 0 1
9954 2 31.3076 43.148 0.938642 0 0 1
11782 1 34.7928 40.1052 0.279321 0 0 0
7237 2 35.8059 41.3905 2.21634 0 -1 0
4043 2 36.6276 41.7116 0.272875 0 0 0
6457 2 38.3667 40.7771 1.78579 0 -1 0
159 2 37.9283 42.9475 2.17333 0 -1 0
2973 1 42.3394 40.0252 0.823655 0 0 0
11836 1 40.5317 40.2188 2.4791 0 0 1
948 2 40.154 42.5566 1.84013 0 0 0
7769 1 42.296 41.8147 2.54211 0 0 0
15752 1 42.1735 42.2249 0.386514 -1 0 1
6941 2 40.089 40.7271 0.157204 0 0 0
14185 2 44.349 40.8236 1.71267 0 1 1
12409 2 44.9871 42.6289 0.438495 0 -1 1
16345 1 45.8463 42.3024 2.90443 -1 0 1
492 1 46.9114 41.2383 1.25738 0 -1 0
12977 1 48.8863 42.1347 2.07691 0 0 1
13980 1 51.3253 42.349 1.7235 -1 0 1
2684 2 49.9546 40.8182 0.214566 0 0 1
5066 1 50.3651 40.6082 2.96185 -1 0 0
1418 1 54.8034 40.519 0.766056 -1 0 0
118 2 53.7353 42.5775 1.5154 0 -1 0
15223 2 52.8487 40.6654 2.5319 0 0 1
15594 2 52.4785 41.158 0.0874779 0 0 1
15427 1 1.28996 44.5473 1.16425 0 -1 1
459 1 4.3381 43.1335 2.78798 0 0 0
14381 1 3.69977 44.6561 1.17534 1 -1 1
14550 1 5.74212 45.4034 0.556853 0 -1 1
703 1 5.18709 45.4327 2.93201 1 0 0
779 2 6.20054 43.486 1.71046 0 0 0
5902 2 8.20791 43.9321 0.789006 0 0 0
404 1 10.1173 45.3761 0.517394 0 0 0
36 1 11.6984 44.5137 1.89729 1 -1 0
11336 2 9.49859 45.1388 2.79599 0 -1 1
14432 1 15.4344 42.8573 1.65074 0 -1 0
6494 1 13.3644 43.3023 0.583133 0 0 0
3780 2 14.0457 44.4826 2.83622 0 0 0
832 1 13.3683 45.5701 0.876844 1 0 0
5036 1 15.6681 45.1402 1.13437 0 0 0
3685 2 17.5392 44.0728 2.10828 0 0 0
10688 1 17.3139 42.9474 0.159174 1 0 1
7114 2 19.6008 44.3233 0.740698 0 0 0
13896 1 19.9306 45.382 2.83413 0 0 1
858 2 21.5313 45.883 1.06413 1 0 0
14446 2 21.5475 43.5096 1.66167 0 -1 1
10301 1 23.6781 45.1368 1.60346 1 -1 1
8176 1 25.0155 42.9417 0.629069 0 0 1
6134 2 25.8978 44.6976 2.06209 0 0 0
5838 1 27.4851 43.2296 0.926275 0 0 0
7061 2 29.5173 44.2554 0.248269 0 0 0
3077 1 30.326 44.6 2.53976 0 -1 0
4196 1 28.1495 45.4562 2.08023 0 0 0
3240 1 32.6638 43.9252 2.85922 0 -1 0
804 1 33.3787 44.3518 0.654324 0 0 0
2027 1 35.59 43.6599 1.32147 0 0 0
3084 2 34.3833 45.7754 2.28957 0 -1 0
5729 2 35.5159 45.6528 0.196812 0 -1 0
3010 1 39.3885 44.8981 2.1646 -1 0 0
10028 1 37.7473 44.8601 0.800507 0 0 1
15987 2 39.909 45.9177 0.0749754 0 0 1
4211 2 41.7774 44.3831 1.98466 0 -1 0
1454 1 43.9159 43.5442 2.16858 0 0 1
12782 2 45.8152 44.9767 2.85014 0 0 1
4059 1 43.5793 45.933 2.04486 -1 0 0
5177 2 45.1934 45.0663 0.40415 0 -1 1
4823 2 47.0453 43.5174 1.322 0 0 0
16220 1 48.2269 45.5277 2.51283 -1 0 1
13550 2 47.5721 45.5225 0.344387 0 0 1
8420 1 49.3894 44.0361 1.00167 0 -1 1
9629 2 51.8763 44.5587 0.864124 0 0 0
848 2 50.7067 45.9231 2.39651 -1 0 0
4672 2 54.2659 44.6337 0.958817 0 0 1
52 1 2.73789 45.8513 2.82745 1 -1 0
13318 1 0.55957 48.3945 2.02572 0 -1 1
14061 1 1.90739 46.8113 0.85476 1 0 1
9924 1 0.220343 46.1363 2.58434 0 0 1
12939 1 3.20783 48.205 2.99849 0 0 1
1588 2 4.28923 47.1655 1.3104 0 0 0
6168 2 5.97981 47.8034 3.10893 0 -1 0
6072 1 7.32078 46.2574 2.01133 1 0 0
10017 2 6.46405 47.9389 0.66082 0 0 0