ITEM: TIMESTEP
380000
ITEM: NUMBER OF ATOMS
16384
ITEM: BOX BOUNDS pp pp pp
0.0000000000000000e+00 5.5200000000000003e+01
0.0000000000000000e+00 5.5200000000000003e+01
0.0000000000000000e+00 5.5200000000000003e+01
ITEM: ATOMS id type x y z ix iy iz
15145 2 1.66808 1.6046 2.66246 1 1 1
1148 1 1.55307 2.22 0.0450473 1 0 0
931 1 3.45388 1.02478 1.44976 0 1 0
4369 2 5.47496 1.26937 2.53419 0 0 0
16216 1 5.32031 2.00393 0.326675 0 1 1
16006 2 7.39421 0.286053 1.33061 0 1 1
11364 1 7.24146 2.72162 1.25974 1 0 1
4779 2 9.34714 1.7086 0.327297 0 1 0
13600 1 9.68588 0.463411 2.52418 0 0 1
10105 1 11.5971 1.20831 1.20782 0 1 1
14853 2 9.15469 2.8326 2.37335 0 1 1
15767 2 13.4942 0.663182 2.30842 0 0 1
12750 2 13.3236 2.8861 1.88101 0 0 1
4763 2 15.2723 1.44203 0.935139 0 0 0
538 1 15.5496 2.4674 2.93778 0 0 0
5720 1 17.0796 0.689882 2.06629 0 1 0
2490 2 17.0224 3.23253 1.3615 0 0 0
9357 1 18.9921 1.35865 0.422507 0 0 0
15324 2 21.0069 0.622138 1.50436 0 1 1
11757 2 18.9914 2.51652 2.59091 0 0 1
12700 1 20.8484 2.93998 1.07808 0 0 1
200 1 22.9051 2.30879 1.83996 0 0 0
4206 2 23.2942 0.0688279 2.30474 0 0 0
15677 1 24.6551 2.45189 0.248297 0 0 1
14831 2 25.2767 1.7261 2.47034 0 0 1
12253 1 26.8448 1.50499 0.77016 1 1 1
4972 2 25.0493 0.082645 0.546292 0 1 0
4991 2 29.3507 0.74653 0.849137 0 1 0
15945 2 28.9162 2.82258 1.18186 -1 0 1
6250 1 31.0417 2.06204 2.01455 1 0 0
7399 2 33.4071 1.26704 2.77651 0 0 0
935 1 33.0729 1.4844 0.448182 0 1 0
3387 2 35.3833 2.65834 2.7245 0 0 0
8174 2 35.1688 0.471076 1.24976 0 1 0
95 1 35.0622 2.69645 0.359505 0 0 0
13698 1 39.235 1.209 1.90354 -1 0 1
14738 2 37.1897 1.78316 0.830428 0 1 1
13740 2 39.9078 2.96589 0.43791 0 0 1
8721 2 42.0262 1.94749 1.06399 0 1 0
10896 2 41.4063 0.479498 2.40018 -1 0 0
2787 2 40.6024 2.97773 2.86772 0 1 0
4861 1 44.0721 1.2633 1.96295 0 1 0
14390 1 46.2456 2.08928 1.63174 0 0 1
15299 1 48.5776 2.27042 2.22614 -1 1 1
3817 2 47.5218 -0.00296835 1.51816 0 1 0
11180 2 49.1671 0.6801 0.412332 0 1 1
4576 2 50.914 0.911211 1.88855 -1 0 0
8228 2 55.1168 1.10778 1.28042 0 0 1
7984 1 52.9578 1.29666 0.46929 -1 1 1
997 1 53.1172 1.01875 3.03119 -1 1 0
3250 2 54.6128 2.82712 3.01829 0 0 0
6199 1 52.5133 2.95613 1.8786 0 0 0
2467 1 1.03929 3.91003 1.81548 0 0 0
11083 2 2.78658 5.55793 0.702138 0 1 1
6903 1 3.22114 3.31266 1.19473 1 1 0
3906 2 2.95042 4.8562 2.96913 0 1 0
2302 2 5.20787 3.63405 2.06946 1 0 0
7359 2 4.66971 5.80932 1.64729 1 0 0
5007 1 6.9815 4.95846 0.962685 0 0 0
13483 1 8.90297 5.36509 2.15659 1 0 1
3854 1 11.1376 3.57278 1.00123 0 1 0
8417 1 10.7286 5.74035 0.930287 1 0 0
6174 2 11.1844 4.92528 2.99923 0 0 1
3672 1 13.1101 5.23148 1.59625 0 0 0
11582 2 15.2526 4.7961 2.45218 1 0 0
13273 2 14.9239 3.71936 0.473281 0 1 1
12123 2 16.7618 5.53532 0.969906 0 1 1
741 1 18.7872 5.03274 1.97962 0 1 0
5805 1 20.7996 5.25342 0.564387 1 0 0
15276 2 20.9975 4.33175 3.01323 0 1 1
11150 1 18.7712 3.46999 55.2673 0 1 0
11706 1 22.7882 4.53962 1.31405 1 0 1
1053 1 27.0619 3.20725 2.68316 0 0 0
3234 1 24.775 3.82434 2.08021 0 0 0
8293 2 26.5962 5.44619 2.21333 0 0 0
15923 2 26.7896 3.88715 0.335815 0 0 1
4146 2 24.7117 6.43548 1.81413 0 0 1
14468 1 26.5038 6.43736 55.3032 -1 0 0
182 1 28.4369 5.27892 0.729187 1 0 -1
13511 2 30.7294 4.3201 1.05249 -1 0 1
15588 1 32.578 5.57993 2.27495 0 0 1
15210 2 33.1135 3.37418 1.87202 0 1 1
12100 1 32.0582 6.06579 55.1738 -1 1 0
9192 1 34.2527 5.15762 0.678572 0 1 1
3907 2 36.2962 4.22865 1.4355 -1 1 0
14989 1 34.7872 4.96255 2.97744 0 1 1
14915 1 38.4639 3.49526 2.12594 -1 1 1
1370 1 38.3488 5.72196 0.840376 0 0 0
3213 2 40.4544 4.97201 1.70912 -1 0 0
4450 1 42.5711 4.15169 2.41846 0 0 0
11637 2 44.0166 3.16565 0.462147 0 0 1
11065 1 44.7434 5.17104 1.75438 0 1 1
15500 2 46.0164 4.06611 0.143809 -1 0 1
16299 2 46.8947 4.20893 2.45168 0 1 1
15239 2 48.455 4.09233 0.75768 -1 1 1
1599 2 50.4308 3.01901 1.00172 0 1 0
11617 1 51.9153 5.04636 1.13823 0 0 1
574 2 54.5572 3.31252 0.358742 0 1 0
9823 2 54.0453 4.95963 2.27877 -1 1 1
1958 1 0.589697 6.09458 1.04932 1 1 0
4274 2 2.26535 7.19464 2.81068 1 0 0
10240 1 55.2813 7.8948 2.6171 0 1 1
5849 2 3.93658 8.03707 1.30731 0 1 0
8232 2 5.68409 8.47695 2.72911 1 0 0
2254 1 6.29069 7.25183 0.607015 0 0 0
14311 1 8.27064 7.65957 1.75236 1 1 1
16284 2 6.70404 6.47701 3.00485 0 1 0
15036 2 10.1337 8.02334 0.486989 1 1 1
4865 2 10.5279 7.16013 2.85201 0 1 0
14551 2 12.267 7.58268 1.48526 0 0 1
13446 1 14.7068 6.24104 0.186029 0 0 1
7665 1 14.5648 7.25759 2.21019 0 0 1
1266 1 14.0902 8.36773 55.1765 0 0 -1
16029 1 16.4574 7.79988 0.673217 0 1 1
14590 2 16.7301 6.66187 2.93697 1 0 1
11392 1 18.5087 7.28898 1.59144 1 0 1
5132 1 20.6025 6.64455 2.44704 0 0 1
11634 2 20.0957 8.9364 1.94811 0 0 1
7462 2 22.5859 6.85605 0.832604 0 0 0
49 1 24.0704 8.63777 1.06003 0 0 0
1167 1 22.2554 8.53002 2.80444 0 0 0
496 1 21.8929 9.30009 0.54986 0 0 0
5647 2 26.3252 7.87158 1.99149 0 0 0
3282 2 28.3939 6.81048 2.82714 0 0 0
4864 1 30.4502 6.51402 1.65144 0 1 0
1551 1 28.4141 7.80529 0.559839 0 0 0
1139 2 30.4886 8.9296 0.860123 0 0 0
9785 1 27.9445 9.19486 2.3325 0 0 0
4691 1 32.5654 7.98021 1.26602 0 0 0
13065 2 34.6248 7.22361 1.86331 0 0 1
535 2 36.1225 6.36941 0.312331 0 0 0
14427 1 34.6588 9.21521 0.714283 0 0 1
719 2 36.7492 6.38216 2.72876 -1 0 0
11255 1 36.8679 8.48063 1.37274 0 1 1
6945 2 39.0563 7.65881 2.03933 -1 0 0
12310 2 42.5938 6.25846 0.971361 0 0 0
2538 2 40.4309 6.91767 0.239026 0 1 0
14791 1 41.1335 6.85915 2.83088 -1 1 1
9399 1 41.3164 8.84156 1.49092 0 0 0
5457 2 43.4093 8.03839 2.25769 0 0 0
5455 1 44.7045 7.13863 0.404772 -1 0 0
6659 2 45.533 7.00521 2.67932 -1 0 0
7033 1 46.9932 6.15769 0.864905 0 1 0
12208 1 45.715 9.15391 1.27015 0 1 1
2142 1 47.7264 8.27073 1.73068 -1 0 0
4918 2 49.3169 6.40083 1.32882 0 1 0
16322 1 50.6608 8.47888 1.96253 -1 1 1
4457 2 50.9091 6.49449 3.10713 -1 0 0
5648 2 49.2923 8.46866 0.0194662 -1 0 0
10758 2 54.9895 8.29212 0.300121 -1 1 1
3334 2 53.161 7.05607 1.21917 -1 0 0
5310 1 1.78653 9.10652 1.46835 1 0 0
1896 2 1.38406 11.2277 0.452599 0 0 0
8536 1 2.87057 11.388 2.56945 0 0 0
343 2 5.2895 10.539 2.02944 0 0 0
1344 2 3.54269 10.3691 0.267819 1 0 0
14210 2 7.55836 9.7465 1.7388 0 1 1
15768 1 8.77198 11.6754 2.53931 0 1 1
15955 1 7.20937 11.6189 0.537533 1 0 1
13607 2 9.31202 10.5443 0.372527 0 0 1
15148 1 9.64594 9.43677 2.5126 0 1 1
993 1 11.4742 10.1078 1.18279 0 1 0
10600 2 13.4639 9.62077 1.98467 0 0 0
9228 1 12.7696 11.9522 1.93753 0 0 1
4436 1 15.083 11.4433 2.72703 0 0 0
13787 1 16.016 9.03403 2.7577 0 0 1
1009 2 15.5742 10.1266 0.712452 0 1 0
4447 1 17.8775 9.56218 1.40481 0 0 0
14454 2 16.9912 12.0279 1.2185 1 0 1
5593 1 19.232 11.2562 1.99877 0 0 0
4572 2 21.2087 11.6862 55.4005 0 0 -1
7603 2 21.656 10.8055 2.38765 0 0 0
9353 2 23.5959 10.9739 0.72867 0 0 0
1490 2 24.013 10.3032 3.04298 0 0 0
4266 1 25.8312 10.1711 1.39563 0 0 0
2510 2 27.2803 11.8926 1.51893 0 0 0
6771 1 29.546 10.7349 2.03723 0 0 0
5351 2 28.0699 10.0849 55.3877 0 0 -1
9486 1 31.6812 9.89772 2.68463 0 0 0
10464 1 31.5633 11.9722 1.56323 0 0 0
2292 2 32.4718 10.2132 0.310525 0 0 0
14442 1 33.8642 11.0983 1.96193 0 0 1
2607 2 36.0494 10.3601 2.54806 0 0 0
7360 2 36.8401 10.4961 0.325374 0 0 0
14320 2 39.1585 9.57635 1.02872 0 1 1
950 2 38.0193 11.8132 1.8375 0 1 0
9869 1 38.002 9.68191 2.93331 -1 0 1
6314 1 40.2321 11.0809 2.2573 0 0 0
1589 2 42.3795 10.3737 2.71386 0 0 0
8527 1 41.2924 10.9156 55.4531 -1 0 0
6988 2 43.4897 9.96129 0.755808 -1 0 0
11811 1 44.4821 11.848 1.90124 0 0 1
642 1 44.504 9.80574 3.27201 -1 0 0
15399 2 46.5749 10.9329 2.37672 0 0 1
10487 2 47.8578 10.3269 0.57229 0 0 1
1715 1 48.8506 10.1928 2.68299 0 0 0
8632 1 50.2046 10.5992 0.911629 0 0 1
14072 1 52.9029 8.86973 2.60347 0 1 1
374 1 52.3854 9.10201 0.428109 0 0 0
2084 2 54.7572 10.1648 1.56347 0 0 0
15925 1 52.6259 11.174 1.57981 0 0 1
16307 1 0.46895 12.1883 2.55624 1 1 1
7515 2 2.22749 13.3138 1.45939 1 0 1
11889 1 4.46964 12.5011 1.53767 0 0 0
11755 1 4.89667 14.6748 2.26057 0 0 1
8551 2 3.70209 14.5673 0.382467 0 0 1
5184 1 6.08516 13.7502 0.383213 1 0 1
4233 2 6.62554 12.8091 2.50388 0 0 0
13574 1 8.38827 13.8489 1.37995 0 0 1
4787 2 10.495 12.5459 1.18668 0 0 0
5316 2 12.0594 14.1266 1.78486 0 0 0
922 2 14.284 13.5993 2.61829 0 1 0
10777 2 14.7748 12.4927 0.568048 0 0 1
11976 1 14.0301 14.8834 0.600084 0 0 1
3346 1 16.2375 14.2859 1.26198 0 0 0
1130 1 18.5877 13.4612 1.86601 0 0 0
10732 2 20.8841 12.9982 2.26892 0 0 1
15400 2 23.2667 12.4429 2.8073 0 0 1
12325 1 24.0353 14.3535 2.07487 0 -1 1
1999 1 22.6075 13.4152 0.469144 0 0 0
14153 1 21.8376 15.2351 1.38375 0 0 1
2054 1 25.1304 12.5894 0.98233 0 0 0
15086 2 26.1885 14.0633 2.40506 0 0 1
814 2 27.7158 14.0786 0.80392 0 0 0
12415 2 24.9133 14.7826 55.3157 1 -1 -1
13339 1 29.4842 12.7264 0.982713 0 -1 1
12252 2 30.1623 14.5107 2.62746 0 1 1
14197 1 32.229 13.921 2.89553 0 1 1
2266 1 31.2226 14.1264 0.51011 0 0 0
7679 2 33.4151 13.2759 0.868988 0 0 0
6204 2 35.8772 12.3862 1.35533 0 0 0
3872 2 36.3243 14.4835 2.69806 0 0 0
6886 1 35.5748 14.7326 0.436961 0 0 0
5272 1 34.145 15.1753 2.25677 0 0 0
11207 2 37.7198 14.0317 0.477203 -1 1 1
12650 2 38.5652 13.7863 3.13531 1 0 1
9303 1 39.8892 13.2839 1.15249 -1 0 1
12726 2 42.1579 12.5553 1.51181 0 0 0
2781 2 41.8948 14.5686 0.571292 0 1 0
11493 2 42.7538 14.5398 2.83107 0 0 0
2917 1 40.5856 15.0272 2.44092 0 1 0
1503 1 44.0985 13.9783 0.96087 0 0 0
10608 1 45.1411 13.8037 3.18003 0 0 1
4869 2 48.5749 12.3228 1.57617 -1 1 0
794 2 46.3202 13.1514 1.37605 -1 1 0
15582 1 48.2773 14.3937 0.502682 -1 0 1
5350 2 47.1064 15.3418 2.59401 0 0 0
7857 1 49.3016 14.188 2.89101 0 0 0
9375 2 50.9381 12.7391 2.05252 0 -1 0
7529 1 50.5247 14.8464 1.07277 0 0 0
15530 2 55.2655 14.3693 1.43458 0 0 1
12353 1 54.4912 12.4167 0.432052 -1 0 1
3472 2 52.165 13.3027 0.211491 -1 0 0
14219 2 53.3911 13.1537 2.38801 -1 1 1
13424 2 0.549511 16.3725 2.4148 0 0 1
7752 1 1.61168 15.6021 0.368886 0 0 0
2262 1 2.13061 17.7258 1.38298 0 0 0
2111 1 2.74753 15.6639 2.49882 1 0 1
10574 2 4.42922 16.7524 1.19196 0 0 1
3574 2 6.39704 18.0214 1.58491 1 0 0
15900 1 6.76958 15.665 1.37632 0 0 1
264 2 8.41818 16.9981 1.86292 0 0 0
12612 1 10.0371 15.3346 1.96201 0 0 1
3550 2 11.3369 17.4418 2.2763 0 0 0
14527 2 12.0372 16.0777 0.336067 1 0 1
8948 2 9.85758 16.9891 55.5372 0 0 -1
7532 2 13.5904 16.0466 2.40205 0 0 1
8655 1 14.0537 17.2643 0.218509 0 0 0
7556 2 15.6608 16.5278 1.40765 0 0 1
6972 1 17.7937 15.7114 2.28382 1 0 1
9876 1 17.7622 17.0833 0.316738 0 0 0
10598 1 17.348 18.0813 2.58117 0 0 1
13346 2 19.7069 16.5743 1.03137 0 0 1
12624 2 21.7656 17.1889 2.57249 0 0 1
13142 1 23.5226 16.5665 0.842862 0 1 1
15953 1 21.8789 18.2849 0.551225 0 0 1
5305 2 23.7702 18.4565 2.31694 0 0 0
10815 1 25.7996 16.5069 1.64934 0 0 1
1675 2 27.7633 17.7203 1.38032 0 1 0
12918 1 29.5787 15.7217 0.715316 0 0 1
3706 1 27.9472 15.4822 2.5182 0 0 0
12872 2 29.8376 17.2645 2.35675 0 0 1
2201 2 31.8266 15.8874 1.8231 0 0 0
12595 1 31.4273 17.3957 0.449814 1 0 1
11605 1 33.5574 17.3459 1.32484 -1 0 1
7584 1 35.9582 16.6679 1.54728 0 0 0
15280 2 38.2476 15.8733 2.00583 0 1 1
9821 2 37.8702 18.0771 1.06246 0 0 0
13880 1 39.7716 15.378 0.054099 0 0 1
14917 2 40.1562 17.256 1.28412 -1 0 1
11370 1 42.3769 16.4266 1.72843 0 0 1
6260 1 44.7429 15.8745 2.2016 0 0 0
1398 1 44.3083 17.7472 1.06339 0 0 0
14474 2 45.9113 15.2325 0.348096 -1 0 1
3411 2 46.7203 17.3909 1.50617 -1 1 0
10587 1 48.7996 16.5385 1.83357 -1 0 1
6458 2 51.0669 17.0278 2.13327 0 0 1
8307 1 50.2227 17.1385 -0.227077 0 0 0
8927 1 52.8666 15.3851 1.40598 0 0 1
2164 1 54.5591 16.4553 0.50838 0 0 0
9183 1 53.2962 17.3886 2.54558 -1 1 0
213 2 52.4588 17.916 0.542068 -1 0 0
14583 2 2.17507 19.8695 1.96553 1 0 1
3782 1 0.0481216 20.9327 2.22299 1 0 0
2388 1 4.31173 19.0469 1.59278 0 0 0
6366 1 3.60747 21.0587 0.684973 0 0 0
10360 2 5.91563 20.2186 0.354861 1 -1 0
15992 1 7.19818 20.1271 2.49625 0 0 1
8181 2 8.48935 19.1469 0.734735 0 0 1
15898 1 9.48585 18.8924 2.73966 0 0 1
12433 1 12.0139 18.345 0.340508 0 0 1
16235 1 9.12748 21.3982 2.36813 0 0 1
15556 2 10.3422 20.1803 0.552899 0 0 1
10951 1 11.5692 19.7203 2.36183 0 0 0
15316 1 13.6113 18.3689 2.17392 0 1 1
8722 2 13.3027 20.3607 0.868449 0 0 0
3222 2 15.5904 19.2158 1.27803 0 0 0
13663 2 18.0524 19.3361 0.640094 0 0 1
3311 1 17.2512 20.4783 2.36423 0 0 0
5611 2 20.1698 18.7729 1.83966 1 0 0
13845 2 20.0157 20.9865 1.96606 0 0 1
1491 2 22.0487 19.8567 2.83256 0 0 0
5505 1 22.1544 20.6099 0.612058 -1 0 0
8528 2 24.0578 20.6866 1.82692 0 0 1
2319 1 23.8486 19.3091 -0.116551 0 0 0
4331 2 25.8905 19.3191 1.64647 0 0 0
13890 2 27.5731 20.1907 0.672766 -1 0 1
12284 1 29.7691 19.2142 0.885882 0 1 1
9654 2 28.2369 19.4442 2.88197 0 0 1
9978 1 30.3187 20.9492 2.56114 0 0 0
10898 2 32.0803 19.4259 1.94033 0 0 1
549 1 33.5922 21.0006 1.42802 0 0 0
650 1 31.4912 20.4552 -0.184435 0 1 0
16182 2 34.2141 19.0623 2.5408 0 0 0
14393 2 35.8861 20.5895 1.79486 0 0 1
3643 2 35.4923 18.7084 0.628788 0 0 0
1969 1 36.5109 18.4427 2.98359 0 0 0
4020 1 38.4013 19.9852 2.14973 0 1 0
11701 1 39.7785 19.5675 0.317997 0 0 1
2412 2 42.0827 18.507 0.694497 0 0 0
5879 1 40.7103 19.3425 2.63989 0 0 1
3692 2 42.4418 20.8338 1.90821 0 0 0
13944 2 44.8517 19.8926 2.41658 0 1 1
477 2 46.2095 19.3017 0.443258 0 0 0
399 1 48.5415 18.5979 0.692318 -1 0 0
2561 2 47.1421 19.1786 2.69606 -1 0 0
3760 2 48.8418 20.6045 2.15564 0 0 0
1605 1 50.6562 19.5018 0.862106 -1 0 0
10278 2 55.0942 18.6499 1.51491 0 0 1
8884 2 52.9863 20.1885 1.62554 -1 0 0
3890 1 54.5073 21.2877 55.2446 0 1 -1
3408 2 1.60069 22.1441 0.706377 0 0 0
15421 2 2.62199 22.0778 2.74226 1 -1 1
1003 2 1.7299 24.3085 1.48108 1 1 0
11096 2 4.98949 21.4425 2.58955 0 0 1
4145 2 3.86729 23.2024 1.16116 1 0 0
15151 1 5.38634 24.441 2.75749 0 0 1
16054 1 6.10978 22.9205 0.55109 1 1 1
11385 2 7.87278 21.4563 0.332185 1 0 1
5386 2 7.00897 22.6663 2.61096 0 -1 0
15619 1 8.04029 24.0588 0.253965 0 0 1
13488 2 11.3506 21.8095 1.85169 1 0 1
6395 1 9.3701 23.7117 2.12084 1 0 1
3755 2 11.6498 24.0109 0.895894 1 0 1
47 1 13.5357 22.6259 1.36138 1 0 0
13793 2 15.1647 24.3893 1.77617 0 0 1
9637 2 14.5056 23.9369 54.9992 0 0 -1
4661 1 18.061 21.7754 0.329515 0 0 0
13540 2 15.7256 21.7414 1.00654 0 -1 1
16274 1 16.9777 23.9293 0.495287 0 0 1
2426 2 16.8548 22.9776 2.70841 1 0 0
12905 2 18.9766 23.2632 1.80332 0 0 1
5411 2 20.4162 22.6397 0.298946 0 0 0
1679 1 20.9754 24.2872 1.72484 0 0 0
11779 1 22.6331 22.4093 1.94736 -1 0 0
3295 1 22.661 23.9434 55.2414 0 0 -1
10179 2 24.6381 23.9498 1.37885 0 1 0
410 1 25.852 21.8769 1.05775 0 0 0
669 2 26.3447 23.759 2.64879 0 0 0
6940 1 27.6392 23.5638 0.736864 -1 0 1
930 1 28.03 21.8588 2.24713 0 1 0
13282 2 29.8269 23.5598 1.89725 0 0 1
58 1 29.5475 21.5754 0.4836 0 -1 0
740 1 31.7347 22.4345 1.0905 0 0 0
8120 2 33.3487 23.9763 0.554007 1 1 1
12086 2 32.0002 24.3105 2.78122 0 0 1
12027 1 35.258 22.4925 0.577572 0 0 1
7667 2 33.913 23.0852 2.62586 0 0 1
14084 1 36.2389 22.6737 3.0127 -1 1 1
12140 2 37.8249 22.2723 1.07523 0 1 1
13162 1 39.5421 23.5439 0.558412 0 1 1
14790 2 37.8559 24.4243 1.87284 -1 1 1
9431 2 40.1465 21.5819 1.66972 0 0 1
12406 1 40.6074 23.6645 2.77473 0 0 1
11166 2 41.8437 23.1021 1.20042 0 0 1
14297 1 44.1282 22.1149 1.44122 0 1 0
10019 2 44.7933 24.4186 2.92658 0 1 1
7601 2 43.8678 24.4888 0.727014 0 0 0
1705 2 46.5707 21.4664 1.71859 0 1 0
10455 2 45.974 23.6435 1.11374 -1 0 1
11249 1 48.3235 22.7334 1.41652 0 1 1
6413 2 51.0223 21.422 2.21415 -1 0 1
4000 2 50.3589 23.7441 1.22323 -1 0 0
7820 1 53.2503 22.3335 2.42355 -1 0 0
15205 2 54.6993 23.3356 0.780739 0 1 1
15762 2 52.2735 22.4427 0.150224 -1 0 1
9608 1 52.6907 24.4172 1.3652 -1 0 1
4766 1 1.52077 26.8359 1.67644 0 0 0
449 2 3.54748 25.6541 1.21801 0 0 0
2733 1 5.57676 26.7736 2.3885 1 0 0
12883 2 5.87389 25.3147 0.387986 0 0 1
3648 2 7.36658 25.1993 2.15202 1 0 0
13891 2 7.70508 26.3557 54.8488 0 0 0
4774 2 9.3763 25.8155 1.14431 0 0 0
14945 2 11.2037 25.5404 2.5731 0 0 1
4198 1 9.60198 27.6406 2.843 0 -1 0
10128 1 11.5473 26.2265 0.182937 0 0 1
10462 1 13.5341 25.746 1.45708 0 0 1
12428 1 17.756 25.6299 2.1095 0 0 1
7262 2 15.8966 26.401 0.329717 0 -1 0
16226 1 15.6032 26.485 2.60585 0 0 1
9023 1 18.0351 26.9522 0.156514 1 0 1
2595 1 20.069 26.3371 1.52166 0 0 0
13071 1 19.1156 25.0558 0.00413603 0 0 1
12209 1 23.1041 25.5536 1.75818 0 0 1
10187 2 21.9799 27.526 1.35968 0 1 1
3417 2 24.6685 27.4667 1.57831 0 0 0
356 2 26.3948 25.7451 1.33757 0 0 0
15835 2 24.7915 25.5508 3.31365 0 0 1
13447 1 26.655 27.7911 3.11477 0 0 1
5980 2 29.0234 25.5808 1.84123 0 0 0
9189 1 30.3016 27.2722 0.336422 0 0 1
6703 2 30.9888 24.9145 0.519618 0 0 1
15134 2 31.2198 26.7208 2.32041 0 0 1
9798 1 33.4185 26.155 1.68372 -1 0 1
14267 1 35.4141 24.4725 1.58509 0 1 1
1324 2 35.3556 26.9417 2.99225 0 0 0
12760 1 34.6711 27.7318 0.573274 0 0 1
1721 2 36.4313 26.3159 0.997764 0 0 0
14483 2 37.7498 26.3089 3.06954 -1 0 1
2549 1 39.8257 25.6458 2.13589 0 0 0
12844 2 38.6409 27.563 1.1181 0 0 1
2071 1 42.4373 25.1465 2.62244 0 0 0
8268 2 41.7894 27.0687 1.98565 -1 0 0
9950 1 41.3828 25.2067 0.365785 0 0 1
15899 1 44.059 26.6146 1.87057 0 0 1
12453 1 45.7688 26.0088 0.0799512 0 0 1
8435 1 48.0689 24.8966 0.844358 0 0 0
14316 2 46.5878 25.7042 2.43762 0 0 1
9878 1 47.6075 27.1195 0.936805 0 1 0
3347 1 48.383 27.351 2.99353 -1 0 0
4997 2 50.4368 26.0106 1.46788 -1 0 0
10816 2 52.5377 26.3114 2.45114 0 0 1
5569 1 54.9158 25.3704 2.11338 -1 0 0
11971 2 53.6252 26.1826 0.0401359 -1 0 1
16376 2 1.09878 29.0741 1.65375 1 0 1
12661 2 3.21245 30.0528 1.69307 1 -1 1
2261 1 3.60504 27.8879 1.38165 0 0 0
5450 2 5.46222 29.0172 2.32477 0 0 0
13649 1 5.91294 27.7989 0.370204 0 0 0
381 1 4.66838 29.6352 55.2209 1 0 -1
6283 1 7.76282 27.7393 1.79764 0 0 0
4622 2 7.04818 29.9536 1.06376 0 0 0
14020 2 8.84811 29.9331 2.35257 0 0 1
2750 2 9.36579 30.6514 0.226715 1 1 0
5890 1 10.0406 27.9697 0.650509 0 0 0
599 1 11.2178 30.0171 1.43213 0 0 0
8318 2 12.1463 27.699 2.15282 1 -1 0
1783 2 14.329 28.0431 0.887089 1 0 1
14937 2 13.2719 29.9319 2.45886 0 0 1
7715 1 15.481 30.1687 1.50985 0 0 0
1200 2 14.7758 28.5214 3.11459 0 -1 0
5010 2 17.361 28.0139 2.09898 0 0 0
10878 1 17.9387 30.2759 1.58771 1 0 1
4051 1 19.8167 28.5942 1.73242 0 1 0
5504 2 18.8921 29.5275 54.9959 1 0 -1
13894 2 23.9612 28.9864 0.214337 0 0 1
6239 2 22.3809 29.4669 2.16685 0 0 1
15460 2 26.2366 29.5041 1.57416 0 0 1
15256 1 28.0124 27.4763 1.43388 0 0 1
1913 1 28.4364 29.7514 0.65607 0 0 0
4472 1 30.1156 28.8285 2.11017 0 0 0
640 1 28.0593 29.4168 3.1131 0 0 0
15921 1 32.3234 28.2949 1.02471 0 0 1
1710 2 32.2105 30.1204 2.79834 0 0 0
1830 1 32.6568 30.5517 0.358161 0 0 0
6610 2 34.3831 29.3941 2.03062 -1 0 0
12860 1 36.5467 28.5141 1.95387 0 0 1
314 1 36.3795 30.6861 3.05056 0 0 0
11102 2 38.4759 29.8301 2.4506 0 1 0
8578 2 38.6757 29.8284 0.0427572 -1 0 0
15188 1 40.5315 28.9566 1.35836 0 1 1
12004 2 42.7259 28.9084 1.07766 0 0 1
7120 1 42.9015 30.84 2.27297 0 1 0
13577 2 45.1289 30.2812 1.6782 -1 0 1
8088 1 44.8984 28.247 0.277418 0 0 0
15964 2 46.0185 27.9627 2.35579 -1 0 1
2710 2 47.819 29.6959 2.73278 0 0 0
8916 2 47.0412 29.4579 0.622979 0 1 0
5873 1 49.238 30.4944 0.782542 0 0 0
9926 2 49.7886 28.1854 1.18694 -1 0 0
12659 2 52.1219 28.6289 1.57948 0 0 1
2751 2 50.3416 29.2252 3.02953 0 0 0
334 2 54.4068 27.7069 1.93775 -1 0 0
14045 1 53.8751 30.3658 1.50958 -1 0 1
4471 1 1.36332 31.5388 1.41644 1 0 0
7167 2 3.61466 32.2979 1.89141 1 0 0
11989 1 5.84015 31.5418 2.61207 0 0 1
3013 1 5.5618 31.8474 0.403129 0 0 0
1852 2 7.7596 32.1968 1.69362 1 0 0
6266 1 9.995 32.884 0.232181 1 -1 0
15549 1 10.1234 31.8639 2.49684 1 -1 1
8201 1 12.2381 32.1374 1.07569 0 -1 1
12414 2 14.2433 32.2277 2.26883 1 -1 1
12784 2 16.5496 32.1503 0.527412 0 0 1
1904 2 16.3735 31.8149 2.85015 0 0 0
5797 1 18.7477 32.3253 0.86371 0 0 0
4668 2 20.3454 30.9824 1.64387 0 0 0
6741 2 20.7995 33.363 0.449817 0 0 0
14108 2 19.859 33.296 2.7939 0 0 1
16108 1 24.0285 30.982 1.84395 0 0 1
15753 1 22.1314 32.2201 2.52208 0 -1 1
15544 2 22.4296 31.6483 0.128086 1 0 1
10161 1 24.8913 33.1076 0.940634 0 0 0
9805 2 26.6554 31.5447 0.844931 0 0 1
1401 1 26.4941 33.3122 2.49149 0 0 0
4712 2 28.3721 31.6829 2.41342 0 0 0
10163 2 30.5869 31.123 1.42347 0 0 1
14828 1 28.7018 33.8405 1.50722 0 0 1
16232 1 31.0089 33.4418 0.644758 0 0 1
9273 1 32.5228 32.1959 1.91834 0 0 1
15663 1 34.7398 31.6015 1.41051 0 -1 1
15666 1 34.6167 33.4348 2.69388 0 0 1
11968 2 36.883 32.688 2.07637 0 0 1
8922 2 36.7636 30.6774 0.783547 0 0 1
8589 1 38.9277 31.8294 1.34984 -1 0 0
6719 1 41.2503 31.205 0.706795 0 0 0
3596 2 40.8766 33.0296 2.15455 -1 0 0
14119 1 43.0194 32.9429 1.16443 0 0 1
10788 1 45.1398 32.3671 0.702961 -1 0 1
12219 2 43.6657 30.7275 55.056 0 0 0
959 2 47.0266 31.777 2.26056 0 1 0
3958 2 48.3658 33.6822 1.5583 0 0 0
11016 1 51.5996 31.1633 1.22092 -1 0 0
6566 2 50.6802 33.4932 2.0396 0 0 0
2539 1 49.6048 31.402 2.94007 -1 0 0
12852 2 52.2424 33.1805 0.0513379 0 0 1
3865 2 50.1224 32.6219 0.0240439 -1 0 1
14035 1 54.452 32.459 0.692296 -1 0 1
6690 1 52.8705 32.6076 2.45685 -1 0 0
16212 2 55.0401 31.8421 3.06354 -1 1 1
16335 2 0.65122 33.832 1.90552 1 0 1
5043 2 1.18462 36.0213 0.885889 1 0 1
15681 1 2.91884 34.546 2.25297 0 0 1
8989 1 2.02413 33.8812 0.0805171 0 0 1
11933 1 5.09298 35.5661 2.75289 0 0 0
15696 1 4.14417 33.6219 0.266314 0 0 1
4239 1 3.86912 35.9924 0.959367 0 -1 0
1786 2 6.03971 33.6899 1.83727 1 0 0
7561 2 6.40967 35.6543 0.622636 0 0 0
10310 2 8.54992 34.4225 1.11447 0 0 1
4201 1 7.3405 35.4162 2.96127 1 -1 0
7327 2 11.0138 33.8177 2.17057 0 0 1
15799 2 9.76942 36.0167 2.43514 1 0 1
15233 2 11.0807 35.2262 0.511423 0 0 1
7137 1 12.5235 35.9278 2.43204 1 0 0
7015 1 13.3439 34.1996 0.943281 0 0 0
12530 1 14.4617 36.2457 1.22618 1 0 1
5549 2 15.5337 34.0322 2.18776 0 0 0
5370 1 17.5347 34.3389 1.0751 1 -1 0
11844 2 16.759 36.6881 0.631324 0 0 1
1810 1 18.8832 35.5602 2.43431 0 0 0
12039 1 21.0092 35.209 1.92288 0 0 1
7711 1 19.5759 35.2336 55.4657 0 0 0
12494 1 22.8321 33.9646 1.45635 0 -1 0
15508 2 22.9001 36.581 2.37439 0 -1 1
14658 2 24.6811 34.9607 2.45284 -1 0 1
11915 2 26.632 35.3688 1.24956 -1 0 1
13935 2 28.7759 35.7084 0.473857 0 0 1
13268 2 30.5546 35.3326 2.28866 0 0 0
5293 1 28.4483 35.5704 3.02712 0 -1 1
14769 1 33.1246 34.3714 0.942698 0 -1 1
11888 1 32.6952 36.3716 2.07479 0 0 0
16052 1 35.3012 33.8267 0.298537 0 0 1
9270 2 35.1731 35.5854 1.69462 0 -1 0
7354 2 37.3114 35.0271 1.16092 0 0 0
15781 1 39.4521 36.5092 2.01558 0 0 1
6448 1 38.8062 34.1077 2.8234 0 0 0
4244 1 39.3643 34.1782 0.34452 -1 -1 0
13875 2 41.6975 35.1343 1.33133 1 0 1
15526 2 42.987 34.3391 3.10714 0 0 1
9136 2 45.3431 34.2641 2.29061 0 0 0
5883 1 44.1183 34.8875 0.337267 0 0 1
10864 2 43.6684 36.3127 2.17826 0 0 0
1802 2 46.9309 35.4202 1.0794 -1 0 0
3731 1 49.2265 35.9068 0.809784 -1 0 0
15155 2 51.4921 35.5168 1.0636 0 0 1
10229 1 53.5586 34.5927 1.54059 0 0 0
13871 1 54.9943 36.0437 2.78675 0 0 1
3214 1 54.2339 36.7467 0.750291 -1 0 0
9706 2 2.07608 36.6615 2.93455 1 -1 0
4336 1 2.62142 38.0429 0.968327 1 -1 0
2103 2 0.719014 38.1965 2.50597 2 -1 0
6534 1 0.439335 38.506 0.103041 0 0 0
6704 2 5.46608 37.7407 1.50031 1 -1 0
10389 2 3.7864 37.5772 2.89792 1 -1 1
899 1 4.13249 39.8268 1.88648 0 0 0
12869 1 7.75065 37.2223 1.66014 0 0 1
197 1 8.26406 39.2582 1.00941 0 0 0
10895 2 6.64882 39.0987 2.92604 0 0 1
3925 2 9.23051 38.5334 2.98978 0 0 0
13687 1 10.2223 37.8089 0.911924 1 0 1
15171 2 11.899 39.6532 1.67093 0 0 1
3079 2 13.7358 38.0214 2.51677 0 -1 0
3858 1 14.7308 38.5513 0.459718 0 0 0
10279 1 12.3903 37.6895 0.646011 0 -1 1
13122 2 17.071 39.4449 1.22301 0 0 1
6363 1 15.9653 37.7852 2.40204 0 0 0
12754 2 18.5971 37.8075 2.40456 0 0 1
4659 1 20.8792 37.2636 1.04962 0 0 0
13962 1 20.7778 39.0656 2.60401 0 0 1
8801 1 19.6767 39.2956 0.551278 0 0 0
2077 2 22.8242 39.1746 1.70734 0 -1 0
2198 1 22.9623 37.5926 55.0011 0 0 -1
2157 2 24.405 39.3925 0.117085 1 -1 0
1639 1 24.6766 37.2382 1.2342 0 0 1
1070 1 26.1278 38.8282 1.6247 0 -1 1
8705 1 26.3064 36.9504 2.9661 0 0 1
6048 1 28.2374 39.6824 0.921214 0 0 0
11718 1 28.3209 37.4288 1.8198 0 0 1
2031 1 29.9298 39.4378 2.56722 0 0 0
15670 2 30.5946 37.4263 1.19686 0 -1 0
13964 1 30.6342 39.7422 0.294411 -1 0 1
7449 2 32.6375 38.6668 1.04003 0 -1 0
5854 1 34.018 39.9903 2.78697 0 0 0
16071 2 36.2104 38.9304 2.28875 -1 0 1
13099 2 34.5931 37.6553 0.73376 0 0 1
2578 1 36.5127 36.9372 3.20697 0 0 0
94 1 37.0374 37.2847 1.03809 0 0 0
14908 2 39.3836 38.5729 0.944489 0 0 1
8712 2 38.4498 38.4569 3.0646 -1 0 1
9682 1 41.7308 37.7117 1.50872 -1 0 1
11836 1 40.407 40.0509 2.80747 0 0 1
12448 1 45.8038 36.8481 2.67857 0 -1 1
3788 2 44.1618 38.665 1.62608 -1 0 0
14863 2 45.2439 37.096 55.4169 -1 0 0
6889 1 46.4933 38.9841 1.97181 0 0 0
2845 1 48.0844 37.3385 2.52707 0 0 0
3230 2 48.8114 39.4354 1.73924 0 0 0
7253 1 47.3605 37.6756 0.355235 0 -1 0
10824 2 50.304 37.6302 2.097 0 0 1
3820 1 51.5604 39.5347 1.18636 0 0 0
2122 2 49.717 38.2486 -0.134746 -1 0 0
8214 1 52.1601 37.6131 0.161948 0 -1 1
2055 2 52.6934 36.8942 2.39429 -1 -1 0
5094 2 53.6832 38.8169 1.76929 0 0 0
1861 1 1.7411 40.2233 1.10887 0 0 0
7865 1 0.782186 42.1853 2.07359 0 0 0
12900 1 3.00368 41.4651 2.86369 1 0 1
1549 2 0.382333 42.9797 55.0543 0 0 -1
2883 2 5.88775 39.7457 0.422327 0 0 1
2186 2 4.86092 41.8241 0.971066 0 0 0
9316 2 7.78397 41.5195 1.24971 0 -1 1
5773 2 8.22837 42.9652 3.05864 0 0 0
361 1 10.0262 40.8248 2.25445 0 -1 0
5776 2 11.9491 42.3866 2.8046 0 0 0
14270 1 11.5904 41.6438 0.699202 1 0 1
15969 1 13.7579 41.1856 1.44839 0 0 1
16096 2 15.3445 40.1494 2.49422 0 0 1
11351 2 17.1175 41.7623 2.46845 0 -1 1
2386 2 15.6885 41.1292 0.337079 0 0 0
10688 1 17.2289 42.9861 0.511598 1 0 1
8825 2 18.7763 40.264 2.76831 1 0 0
5733 1 19.2198 41.6896 0.906218 0 0 1
8660 2 21.2288 41.2834 1.96104 0 0 1
13075 2 23.3851 42.7825 2.48987 0 0 0
13702 1 22.9941 41.5379 0.483784 0 -1 1
2976 1 24.7169 40.6884 1.91926 0 0 0
2471 2 27.3947 41.0155 2.39727 0 0 0
15140 2 26.1875 41.1319 0.319915 0 0 1
5838 1 27.2028 43.0304 1.24955 0 0 0
7268 1 25.6319 42.5021 3.00292 0 0 0
2882 2 29.5569 41.7524 1.41131 0 0 0
2125 2 31.7453 40.8876 2.30597 0 -1 0
1415 1 32.6552 41.0197 55.2345 -1 0 -1
682 2 33.769 42.148 1.68055 0 0 1
9954 2 31.5667 42.9817 0.83192 0 0 1
11782 1 34.7125 39.9075 0.397299 0 0 0
7237 2 35.9677 41.2529 2.28898 0 -1 0
4043 2 36.6048 41.6283 0.185798 0 0 0
6457 2 38.1412 40.4979 1.81664 0 -1 0
159 2 37.9212 42.9593 2.1505 0 -1 0
2973 1 41.7697 39.9218 0.800016 0 0 0
948 2 39.94 42.1397 1.67349 0 0 0
7769 1 41.9463 41.7471 2.66371 0 0 0
15752 1 42.1625 42.1368 0.546932 -1 0 1
14185 2 43.93 41.0215 1.48403 0 1 1
12409 2 45.0112 42.8268 0.41391 0 -1 1
16345 1 45.6945 42.3384 2.77355 -1 0 1
492 1 46.7353 41.0989 1.01338 0 -1 0
12977 1 48.9143 41.9775 2.06657 0 0 1
13980 1 51.2144 42.3228 1.78025 -1 0 1
5066 1 50.4862 40.55 3.04313 -1 0 0
2684 2 50.0586 40.8618 0.21238 0 0 1
1418 1 54.6102 40.7491 0.652285 -1 0 0
118 2 53.6821 42.79 1.60425 0 -1 0
15223 2 52.9332 40.834 2.71096 0 0 1
15594 2 52.3735 41.3783 -0.0273068 0 0 1
6249 1 2.74003 42.75 1.03638 1 -1 0
15427 1 1.43017 44.5499 1.11948 0 -1 1
52 1 2.64688 45.9992 2.76939 1 -1 0
14381 1 3.76913 44.8362 1.22886 1 -1 1
14550 1 5.81626 45.5252 0.31439 0 -1 1
459 1 4.4614 43.0938 2.7782 0 0 0
703 1 5.04932 45.6094 2.97906 1 0 0
779 2 6.29281 43.7436 1.8181 0 0 0
5902 2 8.06097 44.1132 0.653979 0 0 0
6072 1 7.25966 46.1704 1.96669 1 0 0
8962 2 9.97797 43.038 1.48168 0 0 0
11336 2 9.39328 45.2503 2.75086 0 -1 1
404 1 10.0532 45.3776 0.349518 0 0 0
36 1 11.5707 44.4623 1.94755 1 -1 0
6494 1 13.1219 43.4677 0.70393 0 0 0
3780 2 13.9042 44.5037 2.89391 0 0 0
14432 1 15.2802 42.9583 1.70909 0 -1 0
832 1 13.216 45.6485 0.923289 1 0 0
5036 1 15.7205 45.3907 1.03063 0 0 0
3685 2 17.4756 44.1573 2.42705 0 0 0
7114 2 19.2482 44.2753 0.778451 0 0 0
13896 1 19.7393 45.1019 2.85133 0 0 1
14446 2 21.399 43.5135 1.61655 0 -1 1
858 2 21.2229 45.9403 1.29293 1 0 0
10301 1 23.5858 45.1088 1.61693 1 -1 1
8176 1 24.7684 42.9662 0.787807 0 0 1
6134 2 25.8622 44.6297 2.25958 0 0 0
5335 1 27.1361 45.0652 55.4256 -1 -1 -1
4196 1 28.4724 45.8522 1.98063 0 0 0
7061 2 29.2941 43.8487 0.586913 0 0 0
3077 1 30.5578 44.875 2.30818 0 -1 0
3240 1 32.6668 44.2082 2.59985 0 -1 0
804 1 33.7622 44.2471 0.464362 0 0 0
2027 1 35.8141 43.4694 1.39526 0 0 0
5729 2 35.6591 45.709 0.417967 0 -1 0
3084 2 34.7059 45.6833 2.26092 0 -1 0
3010 1 39.2679 45.0386 2.47079 -1 0 0
10028 1 37.9195 44.9022 0.752851 0 0 1
15987 2 40.061 45.7519 0.330472 0 0 1
4211 2 41.4535 44.2493 1.8784 0 -1 0
1454 1 43.6182 43.2488 2.27677 0 0 1
12782 2 45.7344 44.5162 2.50697 0 0 1
5177 2 45.3156 45.1887 0.163403 0 -1 1
4059 1 43.6857 45.5309 1.63384 -1 0 0
4823 2 47.1385 43.338 1.12927 0 0 0
16220 1 47.9419 45.418 2.46211 -1 0 1
13550 2 47.5752 45.5629 -0.0462697 0 0 1
8420 1 49.3614 44.0828 1.07787 0 -1 1
9629 2 51.7476 44.4349 0.968687 0 0 0
848 2 50.6131 45.7736 2.33788 -1 0 0
4672 2 54.2972 44.8573 1.04368 0 0 1
15687 1 55.3233 43.9829 3.12641 -1 -1 1
5245 2 52.6613 44.0671 3.23354 0 -1 0
13318 1 0.575953 48.3249 1.94235 0 -1 1
14061 1 1.85461 47.0201 0.745905 1 0 1
9924 1 0.235665 46.1657 2.55107 0 0 1
12939 1 3.12647 48.4151 2.73084 0 0 1
1588 2 4.31101 47.2406 1.22279 0 0 0
6168 2 5.87576 47.9312 2.9943 0 -1 0
10017 2 6.59042 47.7868 0.600836 0 0 0
11335 2 9.10291 47.4593 0.958061 0 -1 1